      -----------------------------------------------------------      
     |                   =====================                   |     
     |                           x T B                           |     
     |                   =====================                   |     
     |                         S. Grimme                         |     
     |          Mulliken Center for Theoretical Chemistry        |     
     |                    University of Bonn                     |     
      -----------------------------------------------------------      

   * xtb version 6.6.0 (2ccbbd7) compiled by 'conda@6fe65c42fc39' on 2023-02-10

   xtb is free software: you can redistribute it and/or modify it under
   the terms of the GNU Lesser General Public License as published by
   the Free Software Foundation, either version 3 of the License, or
   (at your option) any later version.
   
   xtb is distributed in the hope that it will be useful,
   but WITHOUT ANY WARRANTY; without even the implied warranty of
   MERCHANTABILITY or FITNESS FOR A PARTICULAR PURPOSE.  See the
   GNU Lesser General Public License for more details.
   
   Cite this work as:
   * C. Bannwarth, E. Caldeweyher, S. Ehlert, A. Hansen, P. Pracht,
     J. Seibert, S. Spicher, S. Grimme, WIREs Comput. Mol. Sci., 2020, 11,
     e01493. DOI: 10.1002/wcms.1493
   
   for GFN2-xTB:
   * C. Bannwarth, S. Ehlert and S. Grimme., J. Chem. Theory Comput., 2019,
     15, 1652-1671. DOI: 10.1021/acs.jctc.8b01176
   for GFN1-xTB:
   * S. Grimme, C. Bannwarth, P. Shushkov, J. Chem. Theory Comput., 2017,
     13, 1989-2009. DOI: 10.1021/acs.jctc.7b00118
   for GFN0-xTB:
   * P. Pracht, E. Caldeweyher, S. Ehlert, S. Grimme, ChemRxiv, 2019, preprint.
     DOI: 10.26434/chemrxiv.8326202.v1
   for GFN-FF:
   * S. Spicher and S. Grimme, Angew. Chem. Int. Ed., 2020, 59, 15665-15673.
     DOI: 10.1002/anie.202004239
   
   for ALPB and GBSA implicit solvation:
   * S. Ehlert, M. Stahn, S. Spicher, S. Grimme, J. Chem. Theory Comput.,
     2021, 17, 4250-4261. DOI: 10.1021/acs.jctc.1c00471
   
   for DFT-D4:
   * E. Caldeweyher, C. Bannwarth and S. Grimme, J. Chem. Phys., 2017,
     147, 034112. DOI: 10.1063/1.4993215
   * E. Caldeweyher, S. Ehlert, A. Hansen, H. Neugebauer, S. Spicher,
     C. Bannwarth and S. Grimme, J. Chem. Phys., 2019, 150, 154122.
     DOI: 10.1063/1.5090222
   * E. Caldeweyher, J.-M. Mewes, S. Ehlert and S. Grimme, Phys. Chem. Chem. Phys.
     2020, 22, 8499-8512. DOI: 10.1039/D0CP00502A
   
   for sTDA-xTB:
   * S. Grimme and C. Bannwarth, J. Chem. Phys., 2016, 145, 054103.
     DOI: 10.1063/1.4959605
   
   in the mass-spec context:
   * V. Asgeirsson, C. Bauer and S. Grimme, Chem. Sci., 2017, 8, 4879.
     DOI: 10.1039/c7sc00601b
   * J. Koopman and S. Grimme, ACS Omega 2019, 4, 12, 15120-15133.
     DOI: 10.1021/acsomega.9b02011
   
   for metadynamics refer to:
   * S. Grimme, J. Chem. Theory Comput., 2019, 155, 2847-2862
     DOI: 10.1021/acs.jctc.9b00143
   
   for SPH calculations refer to:
   * S. Spicher and S. Grimme, J. Chem. Theory Comput., 2021, 17, 1701-1714
     DOI: 10.1021/acs.jctc.0c01306
   
   with help from (in alphabetical order)
   P. Atkinson, C. Bannwarth, F. Bohle, G. Brandenburg, E. Caldeweyher
   M. Checinski, S. Dohm, S. Ehlert, S. Ehrlich, I. Gerasimov, C. Hölzer
   A. Katbashev, J. Koopman, C. Lavigne, S. Lehtola, F. März, M. Müller,
   F. Musil, H. Neugebauer, J. Pisarek, C. Plett, P. Pracht, F. Pultar,
   J. Seibert, P. Shushkov, S. Spicher, M. Stahn, M. Steiner, T. Strunk,
   J. Stückrath, T. Rose, and J. Unsleber
   
 * started run on 2023/09/12 at 09:08:12.950     

           -------------------------------------------------
          |                Calculation Setup                |
           -------------------------------------------------

          program call               : xtb CB7.sdf --ohess extreme --alpb water
          coordinate file            : CB7.sdf
          omp threads                :                     8

   ID    Z sym.   atoms
    1    7 N      1, 4, 6, 8, 11, 14, 16, 18, 21, 24, 26, 28, 31, 34, 36, 38,
                  41, 44, 46, 48, 55, 58, 60, 62, 73, 76, 78, 80
    2    6 C      2, 3, 5, 7, 12, 13, 15, 17, 22, 23, 25, 27, 32, 33, 35, 37,
                  42, 43, 45, 47, 51-54, 56, 57, 59, 61, 65-72, 74, 75, 77,
                  79, 83, 84
    3    8 O      9, 10, 19, 20, 29, 30, 39, 40, 49, 50, 63, 64, 81, 82
    4    1 H      85-126

           -------------------------------------------------
          |                 G F N 2 - x T B                 |
           -------------------------------------------------

        Reference                      10.1021/acs.jctc.8b01176
      * Hamiltonian:
        H0-scaling (s, p, d)           1.850000    2.230000    2.230000
        zeta-weighting                 0.500000
      * Dispersion:
        s8                             2.700000
        a1                             0.520000
        a2                             5.000000
        s9                             5.000000
      * Repulsion:
        kExp                           1.500000    1.000000
        rExp                           1.000000
      * Coulomb:
        alpha                          2.000000
        third order                    shell-resolved
        anisotropic                    true
        a3                             3.000000
        a5                             4.000000
        cn-shift                       1.200000
        cn-exp                         4.000000
        max-rad                        5.000000

      * Solvation model:               ALPB
        Solvent                        water
        Parameter file                 internal GFN2-xTB/ALPB
        Dielectric constant                8.0200E+01
        Reference state                gsolv [1 M gas/solution]
        Free energy shift                  1.0808E-03 Eh       6.7819E-01 kcal/mol
        Temperature                        2.9815E+02 K
        Density                            1.0000E+00 kg/L
        Solvent mass                       1.8000E+01 g/mol
        Interaction kernel             P16
        Born radius scaling (c1)           1.4744E+00
        Born radii integrator          GBOBC
        Born offset                        0.0000E+00 a0       0.0000E+00 AA
        H-bond correction              true
        Ion screening                  false
        Surface tension                    1.0000E-05 Eh       1.5569E+01 dyn/cm
        Grid points                               230 per atom

          ...................................................
          :                      SETUP                      :
          :.................................................:
          :  # basis functions                 378          :
          :  # atomic orbitals                 378          :
          :  # shells                          210          :
          :  # electrons                       434          :
          :  max. iterations                   250          :
          :  Hamiltonian                  GFN2-xTB          :
          :  restarted?                      false          :
          :  GBSA solvation                   true          :
          :  PC potential                    false          :
          :  electronic temp.          300.0000000     K    :
          :  accuracy                    1.0000000          :
          :  -> integral cutoff          0.2500000E+02      :
          :  -> integral neglect         0.1000000E-07      :
          :  -> SCF convergence          0.1000000E-05 Eh   :
          :  -> wf. convergence          0.1000000E-03 e    :
          :  Broyden damping             0.4000000          :
          ...................................................

 iter      E             dE          RMSdq      gap      omega  full diag
   1   -253.1255153 -0.253126E+03  0.440E+00    4.48       0.0  T
   2   -253.6116343 -0.486119E+00  0.247E+00    5.26       1.0  T
   3   -253.6168800 -0.524573E-02  0.100E+00    5.17       1.0  T
   4   -253.6187194 -0.183936E-02  0.177E-01    5.25       1.0  T
   5   -253.6201933 -0.147390E-02  0.746E-02    5.21       1.0  T
   6   -253.6202310 -0.377282E-04  0.171E-02    5.22       1.0  T
   7   -253.6202427 -0.116729E-04  0.810E-03    5.21       1.1  T
   8   -253.6202440 -0.133268E-05  0.451E-03    5.21       2.0  T
   9   -253.6202443 -0.340153E-06  0.941E-04    5.21       9.5  T
  10   -253.6202444 -0.734119E-08  0.303E-04    5.21      29.4  T

   *** convergence criteria satisfied after 10 iterations ***

         #    Occupation            Energy/Eh            Energy/eV
      -------------------------------------------------------------
         1        2.0000           -0.7370625             -20.0565
       ...           ...                  ...                  ...
       211        2.0000           -0.4147660             -11.2864
       212        2.0000           -0.4146971             -11.2845
       213        2.0000           -0.4138252             -11.2608
       214        2.0000           -0.4136944             -11.2572
       215        2.0000           -0.4133776             -11.2486
       216        2.0000           -0.4133466             -11.2477
       217        2.0000           -0.4127744             -11.2322 (HOMO)
       218                         -0.2212406              -6.0203 (LUMO)
       219                         -0.2210149              -6.0141
       220                         -0.2200140              -5.9869
       221                         -0.2185581              -5.9473
       222                         -0.2184350              -5.9439
       ...                                ...                  ...
       378                          0.6640930              18.0709
      -------------------------------------------------------------
                  HL-Gap            0.1915339 Eh            5.2119 eV
             Fermi-level           -0.3170075 Eh           -8.6262 eV

 SCC (total)                   0 d,  0 h,  0 min,  0.500 sec
 SCC setup                      ...        0 min,  0.004 sec (  0.817%)
 Dispersion                     ...        0 min,  0.007 sec (  1.497%)
 classical contributions        ...        0 min,  0.002 sec (  0.414%)
 integral evaluation            ...        0 min,  0.023 sec (  4.612%)
 iterations                     ...        0 min,  0.367 sec ( 73.404%)
 molecular gradient             ...        0 min,  0.092 sec ( 18.345%)
 printout                       ...        0 min,  0.004 sec (  0.892%)

         :::::::::::::::::::::::::::::::::::::::::::::::::::::
         ::                     SUMMARY                     ::
         :::::::::::::::::::::::::::::::::::::::::::::::::::::
         :: total energy            -251.152565952446 Eh    ::
         :: total w/o Gsasa/hb      -251.150161008506 Eh    ::
         :: gradient norm              0.106621232774 Eh/a0 ::
         :: HOMO-LUMO gap              5.211902656493 eV    ::
         ::.................................................::
         :: SCC energy              -253.620244356095 Eh    ::
         :: -> isotropic ES            0.825333975091 Eh    ::
         :: -> anisotropic ES          0.018620168107 Eh    ::
         :: -> anisotropic XC          0.038996951242 Eh    ::
         :: -> dispersion             -0.198362016905 Eh    ::
         :: -> Gsolv                  -0.194033624499 Eh    ::
         ::    -> Gelec               -0.191628680559 Eh    ::
         ::    -> Gsasa                0.013674707444 Eh    ::
         ::    -> Ghb                 -0.017160411082 Eh    ::
         ::    -> Gshift               0.001080759698 Eh    ::
         :: repulsion energy           2.458999096092 Eh    ::
         :: add. restraining           0.000000000000 Eh    ::
         :: total charge               0.000000000000 e     ::
         :::::::::::::::::::::::::::::::::::::::::::::::::::::

      ----------------------------------------------------------- 
     |                   =====================                   |
     |                        A N C O P T                        |
     |                   =====================                   |
     |               Approximate Normal Coordinate               |
     |                Rational Function Optimizer                |
      ----------------------------------------------------------- 

          ...................................................
          :                      SETUP                      :
          :.................................................:
          :   optimization level           extreme          :
          :   max. optcycles                  2520          :
          :   ANC micro-cycles                  20          :
          :   degrees of freedom               372          :
          :.................................................:
          :   RF solver                   davidson          :
          :   write xtbopt.log                true          :
          :   linear?                        false          :
          :   energy convergence         0.5000000E-07 Eh   :
          :   grad. convergence          0.5000000E-04 Eh/α :
          :   maxmium RF displ.          1.0000000          :
          :   Hlow (freq-cutoff)         0.1000000E-01      :
          :   Hmax (freq-cutoff)         5.0000000          :
          :   S6 in model hess.         20.0000000          :
          ...................................................

generating ANC from model Hessian ...
Using Lindh-Hessian (1995)
 Shifting diagonal of input Hessian by    9.5717180426830237E-003
 Lowest  eigenvalues of input Hessian
    0.000000    0.000000    0.000000    0.000000    0.000000    0.000000
    0.010000    0.010002    0.010427    0.010432    0.012306    0.012313
    0.013692    0.013697    0.013816    0.013856    0.014043    0.015693
 Highest eigenvalues
    2.497319    2.497568    2.499327    2.501762    2.502549    2.503871


........................................................................
.............................. CYCLE    1 ..............................
........................................................................

 iter      E             dE          RMSdq      gap      omega  full diag
   1   -253.6202444 -0.253620E+03  0.654E-05    5.21       0.0  T
   2   -253.6202444 -0.556781E-10  0.359E-05    5.21     248.3  T
   3   -253.6202444  0.312639E-12  0.136E-05    5.21     656.8  T
     SCC iter.                  ...        0 min,  0.111 sec
     gradient                   ...        0 min,  0.088 sec
 * total energy  :  -251.1525660 Eh     change       -0.5969071E-08 Eh
   gradient norm :     0.1065998 Eh/α   predicted     0.0000000E+00 (-100.00%)
   displ. norm   :     0.3341583 α      lambda       -0.1250981E-01
   maximum displ.:     0.2008597 α      in ANC's #14, #36, #25, ...

........................................................................
.............................. CYCLE    2 ..............................
........................................................................

 iter      E             dE          RMSdq      gap      omega  full diag
   1   -253.6489708 -0.253649E+03  0.110E-01    5.27       0.0  T
   2   -253.6492383 -0.267551E-03  0.584E-02    5.28       1.0  T
   3   -253.6492434 -0.510611E-05  0.243E-02    5.29       1.0  T
   4   -253.6492453 -0.190860E-05  0.340E-03    5.29       2.6  T
   5   -253.6492458 -0.421321E-06  0.166E-03    5.29       5.4  T
   6   -253.6492458 -0.102706E-07  0.205E-04    5.29      43.4  T
   7   -253.6492458 -0.621156E-09  0.109E-04    5.29      81.8  T
     SCC iter.                  ...        0 min,  0.293 sec
     gradient                   ...        0 min,  0.114 sec
 * total energy  :  -251.1620735 Eh     change       -0.9507495E-02 Eh
   gradient norm :     0.0581898 Eh/α   predicted    -0.6975349E-02 ( -26.63%)
   displ. norm   :     0.4560954 α      lambda       -0.8234564E-02
   maximum displ.:     0.2919850 α      in ANC's #14, #36, #25, ...

........................................................................
.............................. CYCLE    3 ..............................
........................................................................

 iter      E             dE          RMSdq      gap      omega  full diag
   1   -253.6701011 -0.253670E+03  0.120E-01    5.33       0.0  T
   2   -253.6705499 -0.448729E-03  0.633E-02    5.36       1.0  T
   3   -253.6705562 -0.634699E-05  0.297E-02    5.36       1.0  T
   4   -253.6705578 -0.155137E-05  0.310E-03    5.36       2.9  T
   5   -253.6705581 -0.360699E-06  0.164E-03    5.36       5.4  T
   6   -253.6705582 -0.254841E-07  0.406E-04    5.36      21.9  T
   7   -253.6705582 -0.134952E-08  0.197E-04    5.36      45.3  T
     SCC iter.                  ...        0 min,  0.264 sec
     gradient                   ...        0 min,  0.108 sec
 * total energy  :  -251.1674963 Eh     change       -0.5422831E-02 Eh
   gradient norm :     0.0111440 Eh/α   predicted    -0.4975480E-02 (  -8.25%)
   displ. norm   :     0.4129482 α      lambda       -0.2763971E-02
   maximum displ.:     0.2908837 α      in ANC's #14, #36, #25, ...

........................................................................
.............................. CYCLE    4 ..............................
........................................................................

 iter      E             dE          RMSdq      gap      omega  full diag
   1   -253.6755287 -0.253676E+03  0.795E-02    5.37       0.0  T
   2   -253.6755788 -0.500853E-04  0.464E-02    5.38       1.0  T
   3   -253.6755805 -0.176355E-05  0.106E-02    5.38       1.0  T
   4   -253.6755820 -0.143875E-05  0.239E-03    5.38       3.7  T
   5   -253.6755821 -0.112875E-06  0.153E-03    5.38       5.8  T
   6   -253.6755821 -0.335426E-07  0.309E-04    5.38      28.9  T
   7   -253.6755821 -0.880590E-09  0.142E-04    5.38      62.5  T
     SCC iter.                  ...        0 min,  0.268 sec
     gradient                   ...        0 min,  0.115 sec
 * total energy  :  -251.1696589 Eh     change       -0.2162627E-02 Eh
   gradient norm :     0.0235410 Eh/α   predicted    -0.1617657E-02 ( -25.20%)
   displ. norm   :     0.5154661 α      lambda       -0.2570053E-02
   maximum displ.:     0.3582872 α      in ANC's #14, #36, #25, ...

........................................................................
.............................. CYCLE    5 ..............................
........................................................................

 iter      E             dE          RMSdq      gap      omega  full diag
   1   -253.6781643 -0.253678E+03  0.102E-01    5.38       0.0  T
   2   -253.6781792 -0.148718E-04  0.605E-02    5.38       1.0  T
   3   -253.6781824 -0.319975E-05  0.682E-03    5.38       1.3  T
   4   -253.6781852 -0.276466E-05  0.357E-03    5.38       2.5  T
   5   -253.6781853 -0.145218E-06  0.113E-03    5.38       7.9  T
   6   -253.6781853 -0.182594E-07  0.448E-04    5.38      19.9  T
   7   -253.6781853 -0.304200E-08  0.108E-04    5.38      82.8  T
     SCC iter.                  ...        0 min,  0.254 sec
     gradient                   ...        0 min,  0.093 sec
 * total energy  :  -251.1715518 Eh     change       -0.1892885E-02 Eh
   gradient norm :     0.0262286 Eh/α   predicted    -0.1626479E-02 ( -14.07%)
   displ. norm   :     0.3963713 α      lambda       -0.1393088E-02
   maximum displ.:     0.2637866 α      in ANC's #14, #36, #25, ...

........................................................................
.............................. CYCLE    6 ..............................
........................................................................

 iter      E             dE          RMSdq      gap      omega  full diag
   1   -253.6840258 -0.253684E+03  0.828E-02    5.38       0.0  T
   2   -253.6840566 -0.307324E-04  0.479E-02    5.38       1.0  T
   3   -253.6840602 -0.364277E-05  0.801E-03    5.38       1.1  T
   4   -253.6840608 -0.552090E-06  0.278E-03    5.38       3.2  T
   5   -253.6840608 -0.713074E-07  0.108E-03    5.38       8.2  T
   6   -253.6840609 -0.307201E-07  0.421E-04    5.38      21.2  T
   7   -253.6840609 -0.277760E-08  0.114E-04    5.38      78.0  T
     SCC iter.                  ...        0 min,  0.278 sec
     gradient                   ...        0 min,  0.088 sec
 * total energy  :  -251.1725056 Eh     change       -0.9538145E-03 Eh
   gradient norm :     0.0156326 Eh/α   predicted    -0.8059973E-03 ( -15.50%)
   displ. norm   :     0.2268045 α      lambda       -0.5241400E-03
   maximum displ.:     0.1240947 α      in ANC's #14, #4, #25, ...

........................................................................
.............................. CYCLE    7 ..............................
........................................................................

 iter      E             dE          RMSdq      gap      omega  full diag
   1   -253.6912060 -0.253691E+03  0.464E-02    5.38       0.0  T
   2   -253.6912258 -0.198146E-04  0.265E-02    5.37       1.0  T
   3   -253.6912269 -0.111781E-05  0.693E-03    5.37       1.3  T
   4   -253.6912274 -0.460995E-06  0.161E-03    5.37       5.5  T
   5   -253.6912275 -0.638344E-07  0.806E-04    5.37      11.1  T
   6   -253.6912275 -0.115127E-07  0.212E-04    5.37      41.9  T
     SCC iter.                  ...        0 min,  0.221 sec
     gradient                   ...        0 min,  0.117 sec
 * total energy  :  -251.1728557 Eh     change       -0.3500767E-03 Eh
   gradient norm :     0.0048449 Eh/α   predicted    -0.2756514E-03 ( -21.26%)
   displ. norm   :     0.1596103 α      lambda       -0.1878728E-03
   maximum displ.:     0.1072402 α      in ANC's #4, #25, #14, ...

........................................................................
.............................. CYCLE    8 ..............................
........................................................................

 iter      E             dE          RMSdq      gap      omega  full diag
   1   -253.6935764 -0.253694E+03  0.263E-02    5.37       0.0  T
   2   -253.6935795 -0.312742E-05  0.153E-02    5.37       1.0  T
   3   -253.6935798 -0.289315E-06  0.251E-03    5.37       3.6  T
   4   -253.6935799 -0.129735E-06  0.823E-04    5.37      10.8  T
   5   -253.6935799 -0.135409E-07  0.387E-04    5.37      23.0  T
     SCC iter.                  ...        0 min,  0.182 sec
     gradient                   ...        0 min,  0.092 sec
 * total energy  :  -251.1729918 Eh     change       -0.1361056E-03 Eh
   gradient norm :     0.0042638 Eh/α   predicted    -0.9633180E-04 ( -29.22%)
   displ. norm   :     0.1495158 α      lambda       -0.1261768E-03
   maximum displ.:     0.1168609 α      in ANC's #4, #12, #25, ...

........................................................................
.............................. CYCLE    9 ..............................
........................................................................

 iter      E             dE          RMSdq      gap      omega  full diag
   1   -253.6939103 -0.253694E+03  0.191E-02    5.37       0.0  T
   2   -253.6939115 -0.121742E-05  0.111E-02    5.37       1.0  T
   3   -253.6939116 -0.156334E-06  0.143E-03    5.37       6.2  T
   4   -253.6939117 -0.338107E-07  0.537E-04    5.37      16.6  T
   5   -253.6939117 -0.307051E-08  0.228E-04    5.37      39.1  T
     SCC iter.                  ...        0 min,  0.183 sec
     gradient                   ...        0 min,  0.112 sec
 * total energy  :  -251.1730916 Eh     change       -0.9985363E-04 Eh
   gradient norm :     0.0051592 Eh/α   predicted    -0.6454135E-04 ( -35.36%)
   displ. norm   :     0.1629805 α      lambda       -0.1228456E-03
   maximum displ.:     0.1340846 α      in ANC's #4, #12, #36, ...

........................................................................
.............................. CYCLE   10 ..............................
........................................................................

 iter      E             dE          RMSdq      gap      omega  full diag
   1   -253.6931067 -0.253693E+03  0.182E-02    5.37       0.0  T
   2   -253.6931083 -0.156203E-05  0.104E-02    5.37       1.0  T
   3   -253.6931084 -0.137815E-06  0.168E-03    5.37       5.3  T
   4   -253.6931085 -0.304311E-07  0.491E-04    5.37      18.2  T
   5   -253.6931085 -0.191312E-08  0.213E-04    5.37      41.8  T
     SCC iter.                  ...        0 min,  0.196 sec
     gradient                   ...        0 min,  0.087 sec
 * total energy  :  -251.1731922 Eh     change       -0.1005326E-03 Eh
   gradient norm :     0.0046061 Eh/α   predicted    -0.6305616E-04 ( -37.28%)
   displ. norm   :     0.1835426 α      lambda       -0.1264713E-03
   maximum displ.:     0.1548164 α      in ANC's #4, #12, #36, ...

........................................................................
.............................. CYCLE   11 ..............................
........................................................................

 iter      E             dE          RMSdq      gap      omega  full diag
   1   -253.6920212 -0.253692E+03  0.205E-02    5.37       0.0  T
   2   -253.6920233 -0.206554E-05  0.117E-02    5.37       1.0  T
   3   -253.6920234 -0.165403E-06  0.199E-03    5.37       4.5  T
   4   -253.6920235 -0.633700E-07  0.584E-04    5.37      15.2  T
   5   -253.6920235 -0.492162E-08  0.279E-04    5.37      31.9  T
     SCC iter.                  ...        0 min,  0.185 sec
     gradient                   ...        0 min,  0.096 sec
 * total energy  :  -251.1732948 Eh     change       -0.1026288E-03 Eh
   gradient norm :     0.0032450 Eh/α   predicted    -0.6537342E-04 ( -36.30%)
   displ. norm   :     0.1889102 α      lambda       -0.1111932E-03
   maximum displ.:     0.1627920 α      in ANC's #4, #12, #36, ...

........................................................................
.............................. CYCLE   12 ..............................
........................................................................

 iter      E             dE          RMSdq      gap      omega  full diag
   1   -253.6912948 -0.253691E+03  0.220E-02    5.37       0.0  T
   2   -253.6912965 -0.168558E-05  0.127E-02    5.37       1.0  T
   3   -253.6912967 -0.193061E-06  0.173E-03    5.37       5.1  T
   4   -253.6912967 -0.733155E-07  0.641E-04    5.37      13.9  T
   5   -253.6912967 -0.537526E-08  0.286E-04    5.37      31.1  T
     SCC iter.                  ...        0 min,  0.197 sec
     gradient                   ...        0 min,  0.099 sec
 * total energy  :  -251.1733833 Eh     change       -0.8850520E-04 Eh
   gradient norm :     0.0024405 Eh/α   predicted    -0.5758773E-04 ( -34.93%)
   displ. norm   :     0.1676657 α      lambda       -0.8082025E-04
   maximum displ.:     0.1473824 α      in ANC's #4, #25, #12, ...

........................................................................
.............................. CYCLE   13 ..............................
........................................................................

 iter      E             dE          RMSdq      gap      omega  full diag
   1   -253.6913472 -0.253691E+03  0.200E-02    5.37       0.0  T
   2   -253.6913481 -0.821967E-06  0.117E-02    5.37       1.0  T
   3   -253.6913482 -0.183257E-06  0.116E-03    5.37       7.7  T
   4   -253.6913483 -0.259053E-07  0.561E-04    5.37      15.9  T
   5   -253.6913483 -0.238614E-08  0.187E-04    5.37      47.6  T
     SCC iter.                  ...        0 min,  0.183 sec
     gradient                   ...        0 min,  0.086 sec
 * total energy  :  -251.1734476 Eh     change       -0.6430135E-04 Eh
   gradient norm :     0.0023939 Eh/α   predicted    -0.4154688E-04 ( -35.39%)
   displ. norm   :     0.1354979 α      lambda       -0.5561212E-04
   maximum displ.:     0.1208382 α      in ANC's #4, #25, #32, ...

........................................................................
.............................. CYCLE   14 ..............................
........................................................................

 iter      E             dE          RMSdq      gap      omega  full diag
   1   -253.6918618 -0.253692E+03  0.160E-02    5.37       0.0  T
   2   -253.6918622 -0.455337E-06  0.929E-03    5.37       1.0  T
   3   -253.6918623 -0.117841E-06  0.850E-04    5.37      10.5  T
   4   -253.6918623 -0.898615E-08  0.433E-04    5.37      20.6  T
     SCC iter.                  ...        0 min,  0.147 sec
     gradient                   ...        0 min,  0.090 sec
 * total energy  :  -251.1734927 Eh     change       -0.4508055E-04 Eh
   gradient norm :     0.0021428 Eh/α   predicted    -0.2831878E-04 ( -37.18%)
   displ. norm   :     0.1092976 α      lambda       -0.4075389E-04
   maximum displ.:     0.0969464 α      in ANC's #4, #25, #36, ...

........................................................................
.............................. CYCLE   15 ..............................
........................................................................

 iter      E             dE          RMSdq      gap      omega  full diag
   1   -253.6924867 -0.253692E+03  0.123E-02    5.38       0.0  T
   2   -253.6924871 -0.358241E-06  0.711E-03    5.37       1.3  T
   3   -253.6924872 -0.470704E-07  0.815E-04    5.37      10.9  T
   4   -253.6924872 -0.242500E-07  0.347E-04    5.37      25.7  T
     SCC iter.                  ...        0 min,  0.167 sec
     gradient                   ...        0 min,  0.099 sec
 * total energy  :  -251.1735267 Eh     change       -0.3401059E-04 Eh
   gradient norm :     0.0016415 Eh/α   predicted    -0.2062192E-04 ( -39.37%)
   displ. norm   :     0.1466560 α      lambda       -0.3444926E-04
   maximum displ.:     0.1259882 α      in ANC's #4, #12, #36, ...

........................................................................
.............................. CYCLE   16 ..............................
........................................................................

 iter      E             dE          RMSdq      gap      omega  full diag
   1   -253.6929996 -0.253693E+03  0.154E-02    5.38       0.0  T
   2   -253.6930001 -0.590120E-06  0.898E-03    5.38       1.0  T
   3   -253.6930002 -0.438948E-07  0.108E-03    5.38       8.2  T
   4   -253.6930002 -0.611343E-07  0.409E-04    5.38      21.8  T
   5   -253.6930003 -0.200981E-08  0.204E-04    5.38      43.7  T
     SCC iter.                  ...        0 min,  0.213 sec
     gradient                   ...        0 min,  0.084 sec
 * total energy  :  -251.1735671 Eh     change       -0.4042402E-04 Eh
   gradient norm :     0.0015250 Eh/α   predicted    -0.1739046E-04 ( -56.98%)
   displ. norm   :     0.1101572 α      lambda       -0.2507084E-04
   maximum displ.:     0.0916276 α      in ANC's #4, #12, #14, ...

........................................................................
.............................. CYCLE   17 ..............................
........................................................................

 iter      E             dE          RMSdq      gap      omega  full diag
   1   -253.6928553 -0.253693E+03  0.111E-02    5.38       0.0  T
   2   -253.6928555 -0.152650E-06  0.642E-03    5.38       1.4  T
   3   -253.6928555 -0.333596E-07  0.519E-04    5.38      17.2  T
   4   -253.6928556 -0.169969E-07  0.257E-04    5.38      34.7  T
     SCC iter.                  ...        0 min,  0.167 sec
     gradient                   ...        0 min,  0.118 sec
 * total energy  :  -251.1736008 Eh     change       -0.3366591E-04 Eh
   gradient norm :     0.0014626 Eh/α   predicted    -0.1260352E-04 ( -62.56%)
   displ. norm   :     0.1293624 α      lambda       -0.3351488E-04
   maximum displ.:     0.0989080 α      in ANC's #4, #12, #2, ...

........................................................................
.............................. CYCLE   18 ..............................
........................................................................

 iter      E             dE          RMSdq      gap      omega  full diag
   1   -253.6923532 -0.253692E+03  0.144E-02    5.38       0.0  T
   2   -253.6923534 -0.257197E-06  0.820E-03    5.38       1.1  T
   3   -253.6923535 -0.867760E-07  0.514E-04    5.38      17.3  T
   4   -253.6923535 -0.504744E-08  0.281E-04    5.38      31.7  T
     SCC iter.                  ...        0 min,  0.147 sec
     gradient                   ...        0 min,  0.106 sec
 * total energy  :  -251.1736455 Eh     change       -0.4472087E-04 Eh
   gradient norm :     0.0012179 Eh/α   predicted    -0.1688751E-04 ( -62.24%)
   displ. norm   :     0.1725205 α      lambda       -0.4254474E-04
   maximum displ.:     0.1302314 α      in ANC's #4, #12, #2, ...

........................................................................
.............................. CYCLE   19 ..............................
........................................................................

 iter      E             dE          RMSdq      gap      omega  full diag
   1   -253.6920163 -0.253692E+03  0.201E-02    5.38       0.0  T
   2   -253.6920170 -0.639546E-06  0.114E-02    5.38       1.0  T
   3   -253.6920171 -0.189691E-06  0.771E-04    5.38      11.6  T
   4   -253.6920171 -0.546788E-08  0.381E-04    5.38      23.4  T
     SCC iter.                  ...        0 min,  0.164 sec
     gradient                   ...        0 min,  0.090 sec
 * total energy  :  -251.1736998 Eh     change       -0.5430593E-04 Eh
   gradient norm :     0.0012556 Eh/α   predicted    -0.2155812E-04 ( -60.30%)
   displ. norm   :     0.1721259 α      lambda       -0.3672783E-04
   maximum displ.:     0.1351083 α      in ANC's #4, #12, #2, ...

........................................................................
.............................. CYCLE   20 ..............................
........................................................................

 iter      E             dE          RMSdq      gap      omega  full diag
   1   -253.6913948 -0.253691E+03  0.202E-02    5.38       0.0  T
   2   -253.6913955 -0.775264E-06  0.116E-02    5.38       1.0  T
   3   -253.6913957 -0.146288E-06  0.103E-03    5.38       8.6  T
   4   -253.6913957 -0.528609E-07  0.445E-04    5.38      20.0  T
   5   -253.6913957 -0.272689E-08  0.212E-04    5.38      42.1  T
     SCC iter.                  ...        0 min,  0.191 sec
     gradient                   ...        0 min,  0.124 sec
 * total energy  :  -251.1737456 Eh     change       -0.4576425E-04 Eh
   gradient norm :     0.0015307 Eh/α   predicted    -0.1860781E-04 ( -59.34%)
   displ. norm   :     0.1237957 α      lambda       -0.2626297E-04
   maximum displ.:     0.1054789 α      in ANC's #4, #12, #2, ...
 * RMSD in coord.:     0.2798156 α      energy gain  -0.2117964E-01 Eh

generating ANC from model Hessian ...
Using Lindh-Hessian (1995)
 Shifting diagonal of input Hessian by    9.5292189069214883E-003
 Lowest  eigenvalues of input Hessian
    0.000000    0.000000    0.000000    0.000000    0.000000    0.000000
    0.010000    0.010001    0.010432    0.010433    0.012499    0.012501
    0.013546    0.013551    0.013877    0.013884    0.013890    0.015447
 Highest eigenvalues
    2.526447    2.526781    2.530345    2.531948    2.532370    2.533693


........................................................................
.............................. CYCLE   21 ..............................
........................................................................

 iter      E             dE          RMSdq      gap      omega  full diag
   1   -253.6924365 -0.253692E+03  0.134E-02    5.38       0.0  T
   2   -253.6924370 -0.545460E-06  0.764E-03    5.38       1.2  T
   3   -253.6924371 -0.690412E-07  0.953E-04    5.38       9.3  T
   4   -253.6924371 -0.298058E-07  0.334E-04    5.38      26.7  T
     SCC iter.                  ...        0 min,  0.148 sec
     gradient                   ...        0 min,  0.090 sec
 * total energy  :  -251.1737774 Eh     change       -0.3182161E-04 Eh
   gradient norm :     0.0015940 Eh/α   predicted     0.0000000E+00 (-100.00%)
   displ. norm   :     0.0477542 α      lambda       -0.1256871E-04
   maximum displ.:     0.0325808 α      in ANC's #4, #3, #12, ...

........................................................................
.............................. CYCLE   22 ..............................
........................................................................

 iter      E             dE          RMSdq      gap      omega  full diag
   1   -253.6924407 -0.253692E+03  0.379E-03    5.38       0.0  T
   2   -253.6924409 -0.163218E-06  0.221E-03    5.38       4.0  T
   3   -253.6924409 -0.407871E-08  0.691E-04    5.38      12.9  T
   4   -253.6924409 -0.136382E-07  0.151E-04    5.38      58.8  T
     SCC iter.                  ...        0 min,  0.167 sec
     gradient                   ...        0 min,  0.099 sec
 * total energy  :  -251.1737950 Eh     change       -0.1756569E-04 Eh
   gradient norm :     0.0006604 Eh/α   predicted    -0.7141149E-05 ( -59.35%)
   displ. norm   :     0.0926219 α      lambda       -0.1920899E-04
   maximum displ.:     0.0628103 α      in ANC's #4, #3, #12, ...

........................................................................
.............................. CYCLE   23 ..............................
........................................................................

 iter      E             dE          RMSdq      gap      omega  full diag
   1   -253.6929266 -0.253693E+03  0.628E-03    5.38       0.0  T
   2   -253.6929266 -0.444400E-07  0.363E-03    5.38       2.5  T
   3   -253.6929266 -0.116478E-07  0.280E-04    5.38      31.8  T
   4   -253.6929266 -0.260849E-08  0.146E-04    5.38      61.1  T
     SCC iter.                  ...        0 min,  0.145 sec
     gradient                   ...        0 min,  0.094 sec
 * total energy  :  -251.1738188 Eh     change       -0.2386498E-04 Eh
   gradient norm :     0.0010517 Eh/α   predicted    -0.9643405E-05 ( -59.59%)
   displ. norm   :     0.1063314 α      lambda       -0.1710173E-04
   maximum displ.:     0.0740974 α      in ANC's #4, #3, #12, ...

........................................................................
.............................. CYCLE   24 ..............................
........................................................................

 iter      E             dE          RMSdq      gap      omega  full diag
   1   -253.6931718 -0.253693E+03  0.717E-03    5.38       0.0  T
   2   -253.6931718 -0.662448E-07  0.418E-03    5.38       2.1  T
   3   -253.6931718 -0.129535E-07  0.313E-04    5.38      28.5  T
   4   -253.6931718 -0.362311E-08  0.161E-04    5.38      55.5  T
     SCC iter.                  ...        0 min,  0.147 sec
     gradient                   ...        0 min,  0.110 sec
 * total energy  :  -251.1738411 Eh     change       -0.2230669E-04 Eh
   gradient norm :     0.0010065 Eh/α   predicted    -0.8597236E-05 ( -61.46%)
   displ. norm   :     0.1285636 α      lambda       -0.1867928E-04
   maximum displ.:     0.0905685 α      in ANC's #4, #3, #32, ...

........................................................................
.............................. CYCLE   25 ..............................
........................................................................

 iter      E             dE          RMSdq      gap      omega  full diag
   1   -253.6931393 -0.253693E+03  0.937E-03    5.38       0.0  T
   2   -253.6931394 -0.123456E-06  0.546E-03    5.38       1.6  T
   3   -253.6931394 -0.242547E-07  0.422E-04    5.38      21.1  T
   4   -253.6931394 -0.598806E-08  0.218E-04    5.38      40.8  T
     SCC iter.                  ...        0 min,  0.160 sec
     gradient                   ...        0 min,  0.118 sec
 * total energy  :  -251.1738663 Eh     change       -0.2520169E-04 Eh
   gradient norm :     0.0008142 Eh/α   predicted    -0.9419316E-05 ( -62.62%)
   displ. norm   :     0.1961113 α      lambda       -0.2694149E-04
   maximum displ.:     0.1378720 α      in ANC's #4, #3, #32, ...

........................................................................
.............................. CYCLE   26 ..............................
........................................................................

 iter      E             dE          RMSdq      gap      omega  full diag
   1   -253.6928948 -0.253693E+03  0.154E-02    5.38       0.0  T
   2   -253.6928951 -0.305858E-06  0.897E-03    5.38       1.0  T
   3   -253.6928951 -0.738767E-07  0.670E-04    5.38      13.3  T
   4   -253.6928952 -0.127935E-07  0.366E-04    5.38      24.4  T
     SCC iter.                  ...        0 min,  0.147 sec
     gradient                   ...        0 min,  0.112 sec
 * total energy  :  -251.1739026 Eh     change       -0.3622002E-04 Eh
   gradient norm :     0.0007047 Eh/α   predicted    -0.1370192E-04 ( -62.17%)
   displ. norm   :     0.3394122 α      lambda       -0.4222109E-04
   maximum displ.:     0.2368641 α      in ANC's #4, #3, #12, ...

........................................................................
.............................. CYCLE   27 ..............................
........................................................................

 iter      E             dE          RMSdq      gap      omega  full diag
   1   -253.6921935 -0.253692E+03  0.281E-02    5.38       0.0  T
   2   -253.6921944 -0.892824E-06  0.163E-02    5.38       1.0  T
   3   -253.6921946 -0.261352E-06  0.115E-03    5.38       7.8  T
   4   -253.6921946 -0.290606E-07  0.655E-04    5.38      13.6  T
   5   -253.6921946 -0.215567E-08  0.177E-04    5.38      50.3  T
     SCC iter.                  ...        0 min,  0.191 sec
     gradient                   ...        0 min,  0.090 sec
 * total energy  :  -251.1739568 Eh     change       -0.5421678E-04 Eh
   gradient norm :     0.0008918 Eh/α   predicted    -0.2219373E-04 ( -59.06%)
   displ. norm   :     0.5182831 α      lambda       -0.5314809E-04
   maximum displ.:     0.3590600 α      in ANC's #4, #3, #12, ...

........................................................................
.............................. CYCLE   28 ..............................
........................................................................

 iter      E             dE          RMSdq      gap      omega  full diag
   1   -253.6909985 -0.253691E+03  0.443E-02    5.38       0.0  T
   2   -253.6910005 -0.200949E-05  0.258E-02    5.38       1.0  T
   3   -253.6910012 -0.666605E-06  0.173E-03    5.38       5.1  T
   4   -253.6910013 -0.538716E-07  0.101E-03    5.38       8.9  T
   5   -253.6910013 -0.503815E-08  0.226E-04    5.38      39.4  T
   6   -253.6910013 -0.134705E-08  0.999E-05    5.38      89.2  T
     SCC iter.                  ...        0 min,  0.248 sec
     gradient                   ...        0 min,  0.099 sec
 * total energy  :  -251.1740172 Eh     change       -0.6041955E-04 Eh
   gradient norm :     0.0013739 Eh/α   predicted    -0.2974811E-04 ( -50.76%)
   displ. norm   :     0.5004380 α      lambda       -0.3741572E-04
   maximum displ.:     0.3438559 α      in ANC's #4, #3, #12, ...

........................................................................
.............................. CYCLE   29 ..............................
........................................................................

 iter      E             dE          RMSdq      gap      omega  full diag
   1   -253.6906689 -0.253691E+03  0.442E-02    5.38       0.0  T
   2   -253.6906707 -0.177721E-05  0.257E-02    5.38       1.0  T
   3   -253.6906714 -0.665567E-06  0.164E-03    5.38       5.4  T
   4   -253.6906714 -0.374147E-07  0.963E-04    5.38       9.3  T
   5   -253.6906714 -0.496939E-08  0.175E-04    5.38      50.9  T
     SCC iter.                  ...        0 min,  0.186 sec
     gradient                   ...        0 min,  0.115 sec
 * total energy  :  -251.1740546 Eh     change       -0.3738236E-04 Eh
   gradient norm :     0.0015290 Eh/α   predicted    -0.2079089E-04 ( -44.38%)
   displ. norm   :     0.2202952 α      lambda       -0.1731264E-04
   maximum displ.:     0.1460306 α      in ANC's #4, #3, #12, ...

........................................................................
.............................. CYCLE   30 ..............................
........................................................................

 iter      E             dE          RMSdq      gap      omega  full diag
   1   -253.6927979 -0.253693E+03  0.212E-02    5.38       0.0  T
   2   -253.6927983 -0.385562E-06  0.123E-02    5.38       1.0  T
   3   -253.6927984 -0.141764E-06  0.824E-04    5.38      10.8  T
   4   -253.6927985 -0.215816E-07  0.473E-04    5.38      18.8  T
     SCC iter.                  ...        0 min,  0.157 sec
     gradient                   ...        0 min,  0.086 sec
 * total energy  :  -251.1740734 Eh     change       -0.1885355E-04 Eh
   gradient norm :     0.0007590 Eh/α   predicted    -0.8843139E-05 ( -53.10%)
   displ. norm   :     0.1728622 α      lambda       -0.1162079E-04
   maximum displ.:     0.1082938 α      in ANC's #4, #3, #12, ...

........................................................................
.............................. CYCLE   31 ..............................
........................................................................

 iter      E             dE          RMSdq      gap      omega  full diag
   1   -253.6934134 -0.253693E+03  0.182E-02    5.38       0.0  T
   2   -253.6934137 -0.268270E-06  0.105E-02    5.38       1.0  T
   3   -253.6934138 -0.110881E-06  0.615E-04    5.38      14.5  T
   4   -253.6934138 -0.614827E-08  0.362E-04    5.38      24.6  T
     SCC iter.                  ...        0 min,  0.146 sec
     gradient                   ...        0 min,  0.102 sec
 * total energy  :  -251.1740864 Eh     change       -0.1295594E-04 Eh
   gradient norm :     0.0006802 Eh/α   predicted    -0.5890574E-05 ( -54.53%)
   displ. norm   :     0.0572221 α      lambda       -0.6667532E-05
   maximum displ.:     0.0452270 α      in ANC's #12, #4, #3, ...

........................................................................
.............................. CYCLE   32 ..............................
........................................................................

 iter      E             dE          RMSdq      gap      omega  full diag
   1   -253.6941845 -0.253694E+03  0.817E-03    5.38       0.0  T
   2   -253.6941846 -0.124355E-06  0.470E-03    5.38       1.9  T
   3   -253.6941846 -0.213849E-07  0.445E-04    5.38      20.0  T
   4   -253.6941846 -0.908577E-08  0.196E-04    5.38      45.5  T
     SCC iter.                  ...        0 min,  0.162 sec
     gradient                   ...        0 min,  0.092 sec
 * total energy  :  -251.1740942 Eh     change       -0.7769501E-05 Eh
   gradient norm :     0.0008191 Eh/α   predicted    -0.3339249E-05 ( -57.02%)
   displ. norm   :     0.1152948 α      lambda       -0.8189648E-05
   maximum displ.:     0.0713799 α      in ANC's #12, #4, #3, ...

........................................................................
.............................. CYCLE   33 ..............................
........................................................................

 iter      E             dE          RMSdq      gap      omega  full diag
   1   -253.6931838 -0.253693E+03  0.144E-02    5.38       0.0  T
   2   -253.6931841 -0.293604E-06  0.824E-03    5.38       1.1  T
   3   -253.6931842 -0.792955E-07  0.588E-04    5.38      15.1  T
   4   -253.6931842 -0.841922E-08  0.300E-04    5.38      29.7  T
     SCC iter.                  ...        0 min,  0.146 sec
     gradient                   ...        0 min,  0.098 sec
 * total energy  :  -251.1741022 Eh     change       -0.7995639E-05 Eh
   gradient norm :     0.0006017 Eh/α   predicted    -0.4119548E-05 ( -48.48%)
   displ. norm   :     0.0384807 α      lambda       -0.3989981E-05
   maximum displ.:     0.0280995 α      in ANC's #12, #32, #52, ...

........................................................................
.............................. CYCLE   34 ..............................
........................................................................

 iter      E             dE          RMSdq      gap      omega  full diag
   1   -253.6933606 -0.253693E+03  0.711E-03    5.38       0.0  T
   2   -253.6933607 -0.127059E-06  0.405E-03    5.38       2.2  T
   3   -253.6933607 -0.262497E-07  0.421E-04    5.38      21.2  T
   4   -253.6933607 -0.354007E-08  0.190E-04    5.38      46.9  T
     SCC iter.                  ...        0 min,  0.152 sec
     gradient                   ...        0 min,  0.110 sec
 * total energy  :  -251.1741065 Eh     change       -0.4372891E-05 Eh
   gradient norm :     0.0005603 Eh/α   predicted    -0.1998021E-05 ( -54.31%)
   displ. norm   :     0.0330211 α      lambda       -0.3671384E-05
   maximum displ.:     0.0140261 α      in ANC's #12, #4, #3, ...

........................................................................
.............................. CYCLE   35 ..............................
........................................................................

 iter      E             dE          RMSdq      gap      omega  full diag
   1   -253.6929741 -0.253693E+03  0.687E-03    5.38       0.0  T
   2   -253.6929742 -0.105721E-06  0.391E-03    5.38       2.3  T
   3   -253.6929743 -0.269438E-07  0.370E-04    5.38      24.1  T
   4   -253.6929743 -0.130569E-08  0.175E-04    5.38      50.9  T
     SCC iter.                  ...        0 min,  0.147 sec
     gradient                   ...        0 min,  0.087 sec
 * total energy  :  -251.1741103 Eh     change       -0.3740883E-05 Eh
   gradient norm :     0.0003030 Eh/α   predicted    -0.1839845E-05 ( -50.82%)
   displ. norm   :     0.0203489 α      lambda       -0.1654912E-05
   maximum displ.:     0.0089443 α      in ANC's #4, #3, #63, ...

........................................................................
.............................. CYCLE   36 ..............................
........................................................................

 iter      E             dE          RMSdq      gap      omega  full diag
   1   -253.6929048 -0.253693E+03  0.384E-03    5.38       0.0  T
   2   -253.6929049 -0.161435E-07  0.224E-03    5.38       4.0  T
   3   -253.6929049 -0.642962E-08  0.163E-04    5.38      54.7  T
   4   -253.6929049 -0.310109E-09  0.896E-05    5.38      99.5  T
     SCC iter.                  ...        0 min,  0.146 sec
     gradient                   ...        0 min,  0.092 sec
 * total energy  :  -251.1741119 Eh     change       -0.1631594E-05 Eh
   gradient norm :     0.0002548 Eh/α   predicted    -0.8288285E-06 ( -49.20%)
   displ. norm   :     0.0284366 α      lambda       -0.6006246E-06
   maximum displ.:     0.0192600 α      in ANC's #4, #3, #32, ...

........................................................................
.............................. CYCLE   37 ..............................
........................................................................

 iter      E             dE          RMSdq      gap      omega  full diag
   1   -253.6929230 -0.253693E+03  0.240E-03    5.38       0.0  T
   2   -253.6929230 -0.880192E-08  0.140E-03    5.38       6.4  T
   3   -253.6929230 -0.223224E-08  0.125E-04    5.38      71.4  T
   4   -253.6929230 -0.568377E-09  0.667E-05    5.38     133.5  T
     SCC iter.                  ...        0 min,  0.206 sec
     gradient                   ...        0 min,  0.097 sec
 * total energy  :  -251.1741125 Eh     change       -0.6187352E-06 Eh
   gradient norm :     0.0001735 Eh/α   predicted    -0.3013568E-06 ( -51.29%)
   displ. norm   :     0.0303622 α      lambda       -0.2692961E-06
   maximum displ.:     0.0208990 α      in ANC's #4, #3, #32, ...

........................................................................
.............................. CYCLE   38 ..............................
........................................................................

 iter      E             dE          RMSdq      gap      omega  full diag
   1   -253.6930628 -0.253693E+03  0.246E-03    5.38       0.0  T
   2   -253.6930628 -0.694297E-08  0.142E-03    5.38       6.3  T
   3   -253.6930628 -0.233041E-08  0.107E-04    5.38      83.5  T
   4   -253.6930628 -0.229363E-09  0.617E-05    5.38     144.3  T
     SCC iter.                  ...        0 min,  0.145 sec
     gradient                   ...        0 min,  0.097 sec
 * total energy  :  -251.1741128 Eh     change       -0.2697545E-06 Eh
   gradient norm :     0.0000814 Eh/α   predicted    -0.1359977E-06 ( -49.58%)
   displ. norm   :     0.0191270 α      lambda       -0.8333509E-07
   maximum displ.:     0.0129236 α      in ANC's #4, #3, #12, ...

........................................................................
.............................. CYCLE   39 ..............................
........................................................................

 iter      E             dE          RMSdq      gap      omega  full diag
   1   -253.6931808 -0.253693E+03  0.171E-03    5.38       0.0  T
   2   -253.6931808 -0.287983E-08  0.991E-04    5.38       9.0  T
   3   -253.6931808 -0.107710E-08  0.697E-05    5.38     127.8  T
     SCC iter.                  ...        0 min,  0.111 sec
     gradient                   ...        0 min,  0.090 sec
 * total energy  :  -251.1741129 Eh     change       -0.9403749E-07 Eh
   gradient norm :     0.0000512 Eh/α   predicted    -0.4409767E-07 ( -53.11%)
   displ. norm   :     0.0191270 α      lambda        0.0000000E+00
   maximum displ.:     0.0129236 α      in ANC's #4, #3, #12, ...

........................................................................
.............................. CYCLE   40 ..............................
........................................................................

 iter      E             dE          RMSdq      gap      omega  full diag
   1   -253.6932954 -0.253693E+03  0.171E-03    5.38       0.0  T
   2   -253.6932954 -0.278126E-08  0.994E-04    5.38       9.0  T
   3   -253.6932954 -0.113161E-08  0.680E-05    5.38     131.0  T
     SCC iter.                  ...        0 min,  0.116 sec
     gradient                   ...        0 min,  0.122 sec
 * total energy  :  -251.1741129 Eh     change       -0.6918725E-08 Eh
   gradient norm :     0.0001087 Eh/α   predicted    -0.2022597E-08 ( -70.77%)
   displ. norm   :     0.0041092 α      lambda       -0.3700765E-07
   maximum displ.:     0.0026134 α      in ANC's #4, #3, #14, ...

........................................................................
.............................. CYCLE   41 ..............................
........................................................................

 iter      E             dE          RMSdq      gap      omega  full diag
   1   -253.6932057 -0.253693E+03  0.374E-04    5.38       0.0  T
   2   -253.6932057 -0.518980E-09  0.215E-04    5.38      41.3  T
   3   -253.6932057 -0.534328E-10  0.324E-05    5.38     274.9  T
     SCC iter.                  ...        0 min,  0.111 sec
     gradient                   ...        0 min,  0.099 sec
 * total energy  :  -251.1741129 Eh     change       -0.4059913E-07 Eh
   gradient norm :     0.0000437 Eh/α   predicted    -0.1997385E-07 ( -50.80%)
   displ. norm   :     0.0041092 α      lambda        0.0000000E+00
   maximum displ.:     0.0026134 α      in ANC's #4, #3, #14, ...

   *** GEOMETRY OPTIMIZATION CONVERGED AFTER 41 ITERATIONS ***

------------------------------------------------------------------------
 total energy gain   :        -0.0215470 Eh      -13.5209 kcal/mol
 total RMSD          :         0.4652917 a0        0.2462 Å
 total power (kW/mol):        -1.3797951 (step)   -4.2613 (real)
------------------------------------------------------------------------

 ANCopt (total)                0 d,  0 h,  0 min, 13.276 sec
 optimizer setup                ...        0 min,  0.000 sec (  0.001%)
 model hessian                  ...        0 min,  0.187 sec (  1.408%)
 ANC generation                 ...        0 min,  0.039 sec (  0.297%)
 coordinate transformation      ...        0 min,  0.008 sec (  0.061%)
 single point calculation       ...        0 min, 12.973 sec ( 97.718%)
 optimization log               ...        0 min,  0.025 sec (  0.191%)
 hessian update                 ...        0 min,  0.020 sec (  0.150%)
 rational function              ...        0 min,  0.017 sec (  0.128%)

================
 final structure:
================
 xtb: 6.6.0 (2ccbbd7)
          09122309083D

126147  0     0  0            999 V2000
    1.6501    2.9008   -4.1905 N   0  0  0  0  0  0  0  0  0  0  0  0
    1.4530    4.2589   -3.7484 C   0  0  0  0  0  0  0  0  0  0  0  0
   -0.0854    4.4384   -3.8208 C   0  0  0  0  0  0  0  0  0  0  0  0
   -0.5475    3.1570   -4.2931 N   0  0  0  0  0  0  0  0  0  0  0  0
    0.4725    2.2602   -4.4744 C   0  0  0  0  0  0  0  0  0  0  0  0
    1.7488    4.4872   -2.3559 N   0  0  0  0  0  0  0  0  0  0  0  0
    0.6267    4.7360   -1.6098 C   0  0  0  0  0  0  0  0  0  0  0  0
   -0.4484    4.7443   -2.4595 N   0  0  0  0  0  0  0  0  0  0  0  0
    0.3613    1.1334   -4.9087 O   0  0  0  0  0  0  0  0  0  0  0  0
    0.6024    5.0052   -0.4278 O   0  0  0  0  0  0  0  0  0  0  0  0
   -2.8390    2.6191   -3.7093 N   0  0  0  0  0  0  0  0  0  0  0  0
   -3.5198    3.6307   -2.9401 C   0  0  0  0  0  0  0  0  0  0  0  0
   -4.6177    2.8314   -2.1918 C   0  0  0  0  0  0  0  0  0  0  0  0
   -4.4062    1.4772   -2.6392 N   0  0  0  0  0  0  0  0  0  0  0  0
   -3.3449    1.3632   -3.4986 C   0  0  0  0  0  0  0  0  0  0  0  0
   -2.7381    4.2018   -1.8717 N   0  0  0  0  0  0  0  0  0  0  0  0
   -3.1894    3.8350   -0.6309 C   0  0  0  0  0  0  0  0  0  0  0  0
   -4.3071    3.0611   -0.8028 N   0  0  0  0  0  0  0  0  0  0  0  0
   -2.9843    0.3477   -4.0544 O   0  0  0  0  0  0  0  0  0  0  0  0
   -2.7416    4.2138    0.4304 O   0  0  0  0  0  0  0  0  0  0  0  0
    5.1132   -1.4312   -0.6400 N   0  0  0  0  0  0  0  0  0  0  0  0
    5.7115   -1.0687    0.6206 C   0  0  0  0  0  0  0  0  0  0  0  0
    5.1899   -2.1602    1.5904 C   0  0  0  0  0  0  0  0  0  0  0  0
    4.3709   -2.9923    0.7446 N   0  0  0  0  0  0  0  0  0  0  0  0
    4.3085   -2.5363   -0.5461 C   0  0  0  0  0  0  0  0  0  0  0  0
    5.2087    0.1541    1.1954 N   0  0  0  0  0  0  0  0  0  0  0  0
    4.4541   -0.0599    2.3190 C   0  0  0  0  0  0  0  0  0  0  0  0
    4.4605   -1.4053    2.5788 N   0  0  0  0  0  0  0  0  0  0  0  0
    3.7288   -3.0751   -1.4648 O   0  0  0  0  0  0  0  0  0  0  0  0
    3.9569    0.7981    3.0169 O   0  0  0  0  0  0  0  0  0  0  0  0
   -1.8499   -4.4555    2.3326 N   0  0  0  0  0  0  0  0  0  0  0  0
   -2.4609   -3.9644    3.5427 C   0  0  0  0  0  0  0  0  0  0  0  0
   -3.7669   -3.2978    3.0384 C   0  0  0  0  0  0  0  0  0  0  0  0
   -3.7172   -3.5062    1.6126 N   0  0  0  0  0  0  0  0  0  0  0  0
   -2.5783   -4.1540    1.2116 C   0  0  0  0  0  0  0  0  0  0  0  0
   -1.7557   -2.8771    4.1743 N   0  0  0  0  0  0  0  0  0  0  0  0
   -2.4269   -1.6861    4.0828 C   0  0  0  0  0  0  0  0  0  0  0  0
   -3.6191   -1.9241    3.4507 N   0  0  0  0  0  0  0  0  0  0  0  0
   -2.3129   -4.4922    0.0778 O   0  0  0  0  0  0  0  0  0  0  0  0
   -2.0758   -0.6315    4.5673 O   0  0  0  0  0  0  0  0  0  0  0  0
   -5.2215   -0.2335   -1.1259 N   0  0  0  0  0  0  0  0  0  0  0  0
   -5.8345    0.2706    0.0777 C   0  0  0  0  0  0  0  0  0  0  0  0
   -5.6739   -0.9026    1.0786 C   0  0  0  0  0  0  0  0  0  0  0  0
   -4.9902   -1.9087    0.3046 N   0  0  0  0  0  0  0  0  0  0  0  0
   -4.7057   -1.4935   -0.9699 C   0  0  0  0  0  0  0  0  0  0  0  0
   -5.1173    1.3488    0.7116 N   0  0  0  0  0  0  0  0  0  0  0  0
   -4.5454    0.9774    1.9002 C   0  0  0  0  0  0  0  0  0  0  0  0
   -4.8898   -0.3265    2.1424 N   0  0  0  0  0  0  0  0  0  0  0  0
   -4.1835   -2.1615   -1.8367 O   0  0  0  0  0  0  0  0  0  0  0  0
   -3.9320    1.7036    2.6530 O   0  0  0  0  0  0  0  0  0  0  0  0
    3.8586   -4.2768    1.1359 C   0  0  0  0  0  0  0  0  0  0  0  0
   -1.7439    5.2223   -2.0612 C   0  0  0  0  0  0  0  0  0  0  0  0
    3.9933   -1.9537    3.8225 C   0  0  0  0  0  0  0  0  0  0  0  0
   -1.8873    2.9043   -4.7476 C   0  0  0  0  0  0  0  0  0  0  0  0
    3.6936    1.8591   -3.4024 N   0  0  0  0  0  0  0  0  0  0  0  0
    4.5151    2.6976   -2.5653 C   0  0  0  0  0  0  0  0  0  0  0  0
    5.3303    1.6779   -1.7288 C   0  0  0  0  0  0  0  0  0  0  0  0
    4.8566    0.4025   -2.2063 N   0  0  0  0  0  0  0  0  0  0  0  0
    3.8791    0.5235   -3.1590 C   0  0  0  0  0  0  0  0  0  0  0  0
    3.7909    3.4434   -1.5664 N   0  0  0  0  0  0  0  0  0  0  0  0
    4.0325    2.9968   -0.2936 C   0  0  0  0  0  0  0  0  0  0  0  0
    4.9566    1.9880   -0.3714 N   0  0  0  0  0  0  0  0  0  0  0  0
    3.3483   -0.3897   -3.7547 O   0  0  0  0  0  0  0  0  0  0  0  0
    3.5879    3.4782    0.7267 O   0  0  0  0  0  0  0  0  0  0  0  0
    2.9321    2.3420   -4.5215 C   0  0  0  0  0  0  0  0  0  0  0  0
    3.0769    4.6614   -1.8349 C   0  0  0  0  0  0  0  0  0  0  0  0
    5.6293    1.4660    0.7863 C   0  0  0  0  0  0  0  0  0  0  0  0
    5.4866   -0.8528   -1.9016 C   0  0  0  0  0  0  0  0  0  0  0  0
   -5.3322    0.4022   -2.4099 C   0  0  0  0  0  0  0  0  0  0  0  0
   -5.1841    2.7190    0.2830 C   0  0  0  0  0  0  0  0  0  0  0  0
   -4.8251   -3.2724    0.7274 C   0  0  0  0  0  0  0  0  0  0  0  0
   -4.6811   -0.9566    3.4170 C   0  0  0  0  0  0  0  0  0  0  0  0
    0.6509   -3.1525    4.2834 N   0  0  0  0  0  0  0  0  0  0  0  0
    1.1477   -4.3788    3.7111 C   0  0  0  0  0  0  0  0  0  0  0  0
    2.6117   -4.0311    3.3369 C   0  0  0  0  0  0  0  0  0  0  0  0
    2.7411   -2.6548    3.7467 N   0  0  0  0  0  0  0  0  0  0  0  0
    1.5802   -2.1457    4.2672 C   0  0  0  0  0  0  0  0  0  0  0  0
    0.5567   -4.7346    2.4449 N   0  0  0  0  0  0  0  0  0  0  0  0
    1.4354   -4.6203    1.3996 C   0  0  0  0  0  0  0  0  0  0  0  0
    2.6487   -4.2403    1.9109 N   0  0  0  0  0  0  0  0  0  0  0  0
    1.4337   -1.0337    4.7279 O   0  0  0  0  0  0  0  0  0  0  0  0
    1.2076   -4.9055    0.2433 O   0  0  0  0  0  0  0  0  0  0  0  0
   -0.5909   -3.0457    4.9988 C   0  0  0  0  0  0  0  0  0  0  0  0
   -0.7311   -5.3574    2.3065 C   0  0  0  0  0  0  0  0  0  0  0  0
    2.0388    4.9459   -4.3739 H   0  0  0  0  0  0  0  0  0  0  0  0
   -0.4371    5.2344   -4.4910 H   0  0  0  0  0  0  0  0  0  0  0  0
   -3.8844    4.4255   -3.6047 H   0  0  0  0  0  0  0  0  0  0  0  0
   -5.6512    3.1388   -2.4011 H   0  0  0  0  0  0  0  0  0  0  0  0
    6.8034   -1.0127    0.5157 H   0  0  0  0  0  0  0  0  0  0  0  0
    5.9639   -2.7678    2.0783 H   0  0  0  0  0  0  0  0  0  0  0  0
   -2.5961   -4.7885    4.2561 H   0  0  0  0  0  0  0  0  0  0  0  0
   -4.6978   -3.7141    3.4464 H   0  0  0  0  0  0  0  0  0  0  0  0
   -6.8688    0.5777   -0.1282 H   0  0  0  0  0  0  0  0  0  0  0  0
   -6.6104   -1.3112    1.4816 H   0  0  0  0  0  0  0  0  0  0  0  0
    4.6293   -4.8038    1.7101 H   0  0  0  0  0  0  0  0  0  0  0  0
    3.6172   -4.8099    0.2090 H   0  0  0  0  0  0  0  0  0  0  0  0
   -1.6091    5.7087   -1.0881 H   0  0  0  0  0  0  0  0  0  0  0  0
   -2.1053    5.9310   -2.8151 H   0  0  0  0  0  0  0  0  0  0  0  0
    3.8325   -1.1036    4.4956 H   0  0  0  0  0  0  0  0  0  0  0  0
    4.7562   -2.6355    4.2159 H   0  0  0  0  0  0  0  0  0  0  0  0
   -1.8376    2.0082   -5.3771 H   0  0  0  0  0  0  0  0  0  0  0  0
   -2.2364    3.7732   -5.3171 H   0  0  0  0  0  0  0  0  0  0  0  0
    5.1093    3.3812   -3.1866 H   0  0  0  0  0  0  0  0  0  0  0  0
    6.4211    1.7392   -1.8413 H   0  0  0  0  0  0  0  0  0  0  0  0
    2.7361    1.4735   -5.1611 H   0  0  0  0  0  0  0  0  0  0  0  0
    3.5221    3.1006   -5.0485 H   0  0  0  0  0  0  0  0  0  0  0  0
    2.9676    5.1756   -0.8730 H   0  0  0  0  0  0  0  0  0  0  0  0
    3.6582    5.2615   -2.5445 H   0  0  0  0  0  0  0  0  0  0  0  0
    5.3888    2.1415    1.6155 H   0  0  0  0  0  0  0  0  0  0  0  0
    6.7072    1.4450    0.5885 H   0  0  0  0  0  0  0  0  0  0  0  0
    5.1616   -1.5588   -2.6746 H   0  0  0  0  0  0  0  0  0  0  0  0
    6.5738   -0.7151   -1.9186 H   0  0  0  0  0  0  0  0  0  0  0  0
   -5.1059   -0.3671   -3.1573 H   0  0  0  0  0  0  0  0  0  0  0  0
   -6.3527    0.7846   -2.5274 H   0  0  0  0  0  0  0  0  0  0  0  0
   -4.8698    3.3274    1.1390 H   0  0  0  0  0  0  0  0  0  0  0  0
   -6.2152    2.9466   -0.0114 H   0  0  0  0  0  0  0  0  0  0  0  0
   -4.6263   -3.8558   -0.1791 H   0  0  0  0  0  0  0  0  0  0  0  0
   -5.7464   -3.6030    1.2205 H   0  0  0  0  0  0  0  0  0  0  0  0
   -5.6127   -1.4440    3.7264 H   0  0  0  0  0  0  0  0  0  0  0  0
   -4.3968   -0.1598    4.1142 H   0  0  0  0  0  0  0  0  0  0  0  0
    1.0259   -5.2031    4.4268 H   0  0  0  0  0  0  0  0  0  0  0  0
    3.3822   -4.6422    3.8261 H   0  0  0  0  0  0  0  0  0  0  0  0
   -0.5160   -2.1439    5.6176 H   0  0  0  0  0  0  0  0  0  0  0  0
   -0.7214   -3.9427    5.6148 H   0  0  0  0  0  0  0  0  0  0  0  0
   -0.8541   -6.0954    3.1074 H   0  0  0  0  0  0  0  0  0  0  0  0
   -0.7404   -5.8344    1.3196 H   0  0  0  0  0  0  0  0  0  0  0  0
  1  2  1  0  0  0  0
  1 65  1  0  0  0  0
  2  3  1  0  0  0  0
  2  6  1  0  0  0  0
  2 85  1  0  0  0  0
  3  4  1  0  0  0  0
  3 86  1  0  0  0  0
  4  5  1  0  0  0  0
  4 54  1  0  0  0  0
  5  1  1  0  0  0  0
  6  7  1  0  0  0  0
  6 66  1  0  0  0  0
  7  8  1  0  0  0  0
  8  3  1  0  0  0  0
  9  5  2  0  0  0  0
 10  7  2  0  0  0  0
 11 12  1  0  0  0  0
 12 13  1  0  0  0  0
 12 16  1  0  0  0  0
 12 87  1  0  0  0  0
 13 14  1  0  0  0  0
 13 88  1  0  0  0  0
 14 15  1  0  0  0  0
 14 69  1  0  0  0  0
 15 11  1  0  0  0  0
 16 17  1  0  0  0  0
 17 18  1  0  0  0  0
 18 13  1  0  0  0  0
 18 70  1  0  0  0  0
 19 15  2  0  0  0  0
 20 17  2  0  0  0  0
 21 22  1  0  0  0  0
 21 68  1  0  0  0  0
 22 23  1  0  0  0  0
 22 26  1  0  0  0  0
 22 89  1  0  0  0  0
 23 24  1  0  0  0  0
 23 90  1  0  0  0  0
 24 25  1  0  0  0  0
 25 21  1  0  0  0  0
 26 27  1  0  0  0  0
 26 67  1  0  0  0  0
 27 28  1  0  0  0  0
 28 23  1  0  0  0  0
 28 53  1  0  0  0  0
 29 25  2  0  0  0  0
 30 27  2  0  0  0  0
 31 32  1  0  0  0  0
 31 84  1  0  0  0  0
 32 33  1  0  0  0  0
 32 36  1  0  0  0  0
 32 91  1  0  0  0  0
 33 34  1  0  0  0  0
 33 92  1  0  0  0  0
 34 35  1  0  0  0  0
 34 71  1  0  0  0  0
 35 31  1  0  0  0  0
 36 37  1  0  0  0  0
 36 83  1  0  0  0  0
 37 38  1  0  0  0  0
 38 33  1  0  0  0  0
 38 72  1  0  0  0  0
 39 35  2  0  0  0  0
 40 37  2  0  0  0  0
 41 42  1  0  0  0  0
 41 69  1  0  0  0  0
 42 43  1  0  0  0  0
 42 46  1  0  0  0  0
 42 93  1  0  0  0  0
 43 44  1  0  0  0  0
 43 94  1  0  0  0  0
 44 45  1  0  0  0  0
 45 41  1  0  0  0  0
 46 47  1  0  0  0  0
 46 70  1  0  0  0  0
 47 48  1  0  0  0  0
 48 43  1  0  0  0  0
 48 72  1  0  0  0  0
 49 45  2  0  0  0  0
 50 47  2  0  0  0  0
 51 24  1  0  0  0  0
 51 80  1  0  0  0  0
 51 95  1  0  0  0  0
 51 96  1  0  0  0  0
 52  8  1  0  0  0  0
 52 16  1  0  0  0  0
 52 97  1  0  0  0  0
 52 98  1  0  0  0  0
 53 99  1  0  0  0  0
 53100  1  0  0  0  0
 54 11  1  0  0  0  0
 54101  1  0  0  0  0
 54102  1  0  0  0  0
 55 56  1  0  0  0  0
 55 65  1  0  0  0  0
 56 57  1  0  0  0  0
 56 60  1  0  0  0  0
 56103  1  0  0  0  0
 57 58  1  0  0  0  0
 57104  1  0  0  0  0
 58 59  1  0  0  0  0
 58 68  1  0  0  0  0
 59 55  1  0  0  0  0
 60 61  1  0  0  0  0
 60 66  1  0  0  0  0
 61 62  1  0  0  0  0
 62 57  1  0  0  0  0
 62 67  1  0  0  0  0
 63 59  2  0  0  0  0
 64 61  2  0  0  0  0
 65105  1  0  0  0  0
 65106  1  0  0  0  0
 66107  1  0  0  0  0
 66108  1  0  0  0  0
 67109  1  0  0  0  0
 67110  1  0  0  0  0
 68111  1  0  0  0  0
 68112  1  0  0  0  0
 69113  1  0  0  0  0
 69114  1  0  0  0  0
 70115  1  0  0  0  0
 70116  1  0  0  0  0
 71 44  1  0  0  0  0
 71117  1  0  0  0  0
 71118  1  0  0  0  0
 72119  1  0  0  0  0
 72120  1  0  0  0  0
 73 74  1  0  0  0  0
 74 75  1  0  0  0  0
 74 78  1  0  0  0  0
 74121  1  0  0  0  0
 75 76  1  0  0  0  0
 75122  1  0  0  0  0
 76 53  1  0  0  0  0
 76 77  1  0  0  0  0
 77 73  1  0  0  0  0
 77 81  2  0  0  0  0
 78 79  1  0  0  0  0
 79 80  1  0  0  0  0
 80 75  1  0  0  0  0
 82 79  2  0  0  0  0
 83 73  1  0  0  0  0
 83123  1  0  0  0  0
 83124  1  0  0  0  0
 84 78  1  0  0  0  0
 84125  1  0  0  0  0
 84126  1  0  0  0  0
M  END
$$$$

 Bond Distances (Angstroems)
 ---------------------------
N1-C2=1.4418         N1-C5=1.3703         N1-C65=1.4372        C2-N1=1.4418         C2-C3=1.5506         C2-N6=1.4418         
C2-H85=1.0984        C3-C2=1.5506         C3-N4=1.4418         C3-N8=1.4417         C3-H86=1.0984        N4-C3=1.4418         
N4-C5=1.3702         N4-C54=1.4372        C5-N1=1.3703         C5-N4=1.3702         C5-O9=1.2126         N6-C2=1.4418         
N6-C7=1.3703         N6-C66=1.4372        C7-N6=1.3703         C7-N8=1.3703         C7-O10=1.2126        N8-C3=1.4417         
N8-C7=1.3703         N8-C52=1.4371        O9-C5=1.2126         O10-C7=1.2126        N11-C12=1.4417       N11-C15=1.3702       
N11-C54=1.4371       C12-N11=1.4417       C12-C13=1.5505       C12-N16=1.4418       C12-H87=1.0983       C13-C12=1.5505       
C13-N14=1.4418       C13-N18=1.4418       C13-H88=1.0983       N14-C13=1.4418       N14-C15=1.3704       N14-C69=1.4372       
C15-N11=1.3702       C15-N14=1.3704       C15-O19=1.2126       N16-C12=1.4418       N16-C17=1.3703       N16-C52=1.4373       
C17-N16=1.3703       C17-N18=1.3703       C17-O20=1.2126       N18-C13=1.4418       N18-C17=1.3703       N18-C70=1.4371       
O19-C15=1.2126       O20-C17=1.2126       N21-C22=1.4418       N21-C25=1.3703       N21-C68=1.4371       C22-N21=1.4418       
C22-C23=1.5505       C22-N26=1.4417       C22-H89=1.0984       C23-C22=1.5505       C23-N24=1.4417       C23-N28=1.4418       
C23-H90=1.0984       N24-C23=1.4417       N24-C25=1.3703       N24-C51=1.4372       C25-N21=1.3703       C25-N24=1.3703       
C25-O29=1.2126       N26-C22=1.4417       N26-C27=1.3702       N26-C67=1.4372       C27-N26=1.3702       C27-N28=1.3703       
C27-O30=1.2126       N28-C23=1.4418       N28-C27=1.3703       N28-C53=1.4372       O29-C25=1.2126       O30-C27=1.2126       
N31-C32=1.4419       N31-C35=1.3703       N31-C84=1.4373       C32-N31=1.4419       C32-C33=1.5506       C32-N36=1.4417       
C32-H91=1.0983       C33-C32=1.5506       C33-N34=1.4418       C33-N38=1.4418       C33-H92=1.0984       N34-C33=1.4418       
N34-C35=1.3703       N34-C71=1.4372       C35-N31=1.3703       C35-N34=1.3703       C35-O39=1.2126       N36-C32=1.4417       
N36-C37=1.3702       N36-C83=1.4370       C37-N36=1.3702       C37-N38=1.3702       C37-O40=1.2126       N38-C33=1.4418       
N38-C37=1.3702       N38-C72=1.4370       O39-C35=1.2126       O40-C37=1.2126       N41-C42=1.4417       N41-C45=1.3703       
N41-C69=1.4371       C42-N41=1.4417       C42-C43=1.5505       C42-N46=1.4418       C42-H93=1.0984       C43-C42=1.5505       
C43-N44=1.4418       C43-N48=1.4416       C43-H94=1.0984       N44-C43=1.4418       N44-C45=1.3703       N44-C71=1.4373       
C45-N41=1.3703       C45-N44=1.3703       C45-O49=1.2126       N46-C42=1.4418       N46-C47=1.3703       N46-C70=1.4372       
C47-N46=1.3703       C47-N48=1.3702       C47-O50=1.2126       N48-C43=1.4416       N48-C47=1.3702       N48-C72=1.4371       
O49-C45=1.2126       O50-C47=1.2126       C51-N24=1.4372       C51-N80=1.4372       C51-H95=1.0961       C51-H96=1.0962       
C52-N8=1.4371        C52-N16=1.4373       C52-H97=1.0962       C52-H98=1.0960       C53-N28=1.4372       C53-N76=1.4371       
C53-H99=1.0962       C53-H100=1.0961      C54-N4=1.4372        C54-N11=1.4371       C54-H101=1.0962      C54-H102=1.0960      
N55-C56=1.4417       N55-C59=1.3703       N55-C65=1.4372       C56-N55=1.4417       C56-C57=1.5505       C56-N60=1.4418       
C56-H103=1.0984      C57-C56=1.5505       C57-N58=1.4418       C57-N62=1.4417       C57-H104=1.0983      N58-C57=1.4418       
N58-C59=1.3703       N58-C68=1.4372       C59-N55=1.3703       C59-N58=1.3703       C59-O63=1.2126       N60-C56=1.4418       
N60-C61=1.3703       N60-C66=1.4372       C61-N60=1.3703       C61-N62=1.3703       C61-O64=1.2126       N62-C57=1.4417       
N62-C61=1.3703       N62-C67=1.4371       O63-C59=1.2126       O64-C61=1.2126       C65-N1=1.4372        C65-N55=1.4372       
C65-H105=1.0962      C65-H106=1.0960      C66-N6=1.4372        C66-N60=1.4372       C66-H107=1.0962      C66-H108=1.0961      
C67-N26=1.4372       C67-N62=1.4371       C67-H109=1.0962      C67-H110=1.0960      C68-N21=1.4371       C68-N58=1.4372       
C68-H111=1.0962      C68-H112=1.0961      C69-N14=1.4372       C69-N41=1.4371       C69-H113=1.0962      C69-H114=1.0961      
C70-N18=1.4371       C70-N46=1.4372       C70-H115=1.0963      C70-H116=1.0961      C71-N34=1.4372       C71-N44=1.4373       
C71-H117=1.0962      C71-H118=1.0960      C72-N38=1.4370       C72-N48=1.4371       C72-H119=1.0960      C72-H120=1.0962      
N73-C74=1.4416       N73-C77=1.3702       N73-C83=1.4371       C74-N73=1.4416       C74-C75=1.5506       C74-N78=1.4419       
C74-H121=1.0984      C75-C74=1.5506       C75-N76=1.4418       C75-N80=1.4418       C75-H122=1.0984      N76-C53=1.4371       
N76-C75=1.4418       N76-C77=1.3703       C77-N73=1.3702       C77-N76=1.3703       C77-O81=1.2126       N78-C74=1.4419       
N78-C79=1.3703       N78-C84=1.4372       C79-N78=1.3703       C79-N80=1.3704       C79-O82=1.2126       N80-C51=1.4372       
N80-C75=1.4418       N80-C79=1.3704       O81-C77=1.2126       O82-C79=1.2126       C83-N36=1.4370       C83-N73=1.4371       
C83-H123=1.0962      C83-H124=1.0960      C84-N31=1.4373       C84-N78=1.4372       C84-H125=1.0960      C84-H126=1.0962      
H85-C2=1.0984        H86-C3=1.0984        H87-C12=1.0983       H88-C13=1.0983       H89-C22=1.0984       H90-C23=1.0984       
H91-C32=1.0983       H92-C33=1.0984       H93-C42=1.0984       H94-C43=1.0984       H95-C51=1.0961       H96-C51=1.0962       
H97-C52=1.0962       H98-C52=1.0960       H99-C53=1.0962       H100-C53=1.0961      H101-C54=1.0962      H102-C54=1.0960      
H103-C56=1.0984      H104-C57=1.0983      H105-C65=1.0962      H106-C65=1.0960      H107-C66=1.0962      H108-C66=1.0961      
H109-C67=1.0962      H110-C67=1.0960      H111-C68=1.0962      H112-C68=1.0961      H113-C69=1.0962      H114-C69=1.0961      
H115-C70=1.0963      H116-C70=1.0961      H117-C71=1.0962      H118-C71=1.0960      H119-C72=1.0960      H120-C72=1.0962      
H121-C74=1.0984      H122-C75=1.0984      H123-C83=1.0962      H124-C83=1.0960      H125-C84=1.0960      H126-C84=1.0962      
 C  H  Rav=1.0969 sigma=0.0011  Rmin=1.0960  Rmax=1.0984    42
 C  C  Rav=1.5505 sigma=0.0000  Rmin=1.5505  Rmax=1.5506     7
 N  C  Rav=1.4164 sigma=0.0327  Rmin=1.3702  Rmax=1.4419    84
 O  C  Rav=1.2126 sigma=0.0000  Rmin=1.2126  Rmax=1.2126    14

 selected bond angles (degree)
 --------------------
C5-N1-C2=112.74                C65-N1-C2=123.97               C65-N1-C5=122.49               C3-C2-N1=103.32                
N6-C2-N1=114.66                N6-C2-C3=103.32                H85-C2-N1=109.98               H85-C2-C3=115.47               
H85-C2-N6=109.97               N4-C3-C2=103.32                N8-C3-C2=103.31                N8-C3-N4=114.66                
H86-C3-C2=115.47               H86-C3-N4=109.98               H86-C3-N8=109.98               C5-N4-C3=112.74                
C54-N4-C3=123.96               C54-N4-C5=122.48               N4-C5-N1=107.84                O9-C5-N1=125.97                
O9-C5-N4=125.96                C7-N6-C2=112.74                C66-N6-C2=123.98               C66-N6-C7=122.51               
N8-C7-N6=107.82                O10-C7-N6=125.98               O10-C7-N8=125.97               C7-N8-C3=112.75                
C52-N8-C3=124.00               C52-N8-C7=122.51               

 selected dihedral angles (degree)
 ---------------------------------
C3-C2-N1-C5=358.52            C3-C2-N1-C65=168.44           N6-C2-N1-C5=110.19            N6-C2-N1-C65=280.10           
H85-C2-N1-C5=234.72           H85-C2-N1-C65= 44.63          N4-C3-C2-N1=  0.04            N4-C3-C2-N6=240.25            
N4-C3-C2-H85=120.15           N8-C3-C2-N1=119.81            N8-C3-C2-N6=  0.03            N8-C3-C2-H85=239.92           
H86-C3-C2-N1=239.93           H86-C3-C2-N6=120.14           H86-C3-C2-H85=  0.04          C5-N4-C3-C2=  1.41            
C5-N4-C3-N8=249.76            C5-N4-C3-H86=125.21           C54-N4-C3-C2=191.59           C54-N4-C3-N8= 79.93           
C54-N4-C3-H86=315.39          N4-C5-N1-C2=  2.40            N4-C5-N1-C65=192.32           O9-C5-N1-C2=177.17            
O9-C5-N1-C65=  7.09           N1-C5-N4-C3=357.63            N1-C5-N4-C54=167.62           O9-C5-N4-C3=182.86            
O9-C5-N4-C54=352.86           C7-N6-C2-N1=249.86            C7-N6-C2-C3=  1.53            C7-N6-C2-H85=125.33           
C66-N6-C2-N1= 79.74           C66-N6-C2-C3=191.41           C66-N6-C2-H85=315.21          N8-C7-N6-C2=357.45            
N8-C7-N6-C66=167.73           O10-C7-N6-C2=182.76           O10-C7-N6-C66=353.04          C7-N8-C3-C2=358.42            
C7-N8-C3-N4=110.08            C7-N8-C3-H86=234.62           C52-N8-C3-C2=168.73           C52-N8-C3-N4=280.39           
C52-N8-C3-H86= 44.92          C3-N8-C7-N6=  2.57            C3-N8-C7-O10=177.26           C52-N8-C7-N6=192.11           
C52-N8-C7-O10=  6.80          
           -------------------------------------------------
          |                Final Singlepoint                |
           -------------------------------------------------

          ...................................................
          :                      SETUP                      :
          :.................................................:
          :  # basis functions                 378          :
          :  # atomic orbitals                 378          :
          :  # shells                          210          :
          :  # electrons                       434          :
          :  max. iterations                   250          :
          :  Hamiltonian                  GFN2-xTB          :
          :  restarted?                      false          :
          :  GBSA solvation                   true          :
          :  PC potential                    false          :
          :  electronic temp.          300.0000000     K    :
          :  accuracy                    1.0000000          :
          :  -> integral cutoff          0.2500000E+02      :
          :  -> integral neglect         0.1000000E-07      :
          :  -> SCF convergence          0.1000000E-05 Eh   :
          :  -> wf. convergence          0.1000000E-03 e    :
          :  Broyden damping             0.4000000          :
          ...................................................

 iter      E             dE          RMSdq      gap      omega  full diag
   1   -253.6932057 -0.253693E+03  0.124E-05    5.38       0.0  T
   2   -253.6932057 -0.119371E-11  0.718E-06    5.38    1240.2  T
   3   -253.6932057  0.540012E-12  0.280E-06    5.38    3181.1  T

   *** convergence criteria satisfied after 3 iterations ***

[...]
 113: 11.91 114: 11.91 115: 11.48 116: 11.85 117: 11.85 118: 12.17 119: 12.18 120: 12.55
 121: 12.54 122: 12.56 123: 12.57 124: 11.86 125: 11.85 126: 12.31 127: 12.32 128: 12.04
 129: 12.03 130: 12.32 131: 12.52 132: 12.48 133: 12.63 134: 12.57 135: 12.49 136: 12.54
 137: 12.75 138: 12.68 139: 12.68 140: 12.70 141: 11.47 142: 11.47 143: 11.76 144: 11.76
 145: 11.61 146: 11.61 147: 11.87 148: 11.87 149: 11.51 150: 11.51 151: 12.06 152: 11.51
 153: 11.61 154: 11.61 155: 11.54 156: 11.63 157: 11.63 158: 11.86 159: 11.86 160: 12.03
 161: 12.03 162:  8.71 163:  8.71 164:  7.94 165:  7.94 166:  7.13 167:  7.06 168:  6.95
 169:  7.81 170:  7.90 171:  7.90 172:  8.07 173:  8.06 174:  8.29 175:  8.29 176:  6.66
 177:  7.19 178:  6.35 179:  6.95 180:  9.09 181:  9.08 182: 10.45 183: 10.89 184: 10.88
 185:  5.97 186:  7.27 187:  7.27 188: 10.94 189: 10.95 190:  8.68 191:  8.67 192:  9.56
 193:  9.55 194: 10.87 195: 10.87 196: 10.85 197: 10.09 198: 10.08 199:  9.96 200:  9.98
 201:  9.82 202: 10.01 203:  9.87 204:  9.95 205:  9.58 206:  9.71 207:  9.71 208:  6.89
 209:  6.77 210:  6.90 211:  9.06 212:  9.16 213:  6.21 214:  6.25 215:  8.95 216:  5.26
 217:  5.29 218:  6.71 219:  6.23 220:  6.58 221:  6.51 222:  6.52 223:  6.02 224:  6.04
 225: 11.23 226: 10.48 227: 10.49 228:  8.98 229:  9.69 230:  9.65 231: 10.30 232:  9.76
 233: 10.34 234:  9.98 235: 10.79 236: 10.81 237:  9.35 238:  9.44 239:  8.85 240:  3.97
 241:  3.90 242:  8.32 243:  6.42 244:  5.45 245:  3.34 246:  3.06 247:  3.05 248:  3.12
 249: 12.04 250: 12.17 251:  8.56 252:  8.44 253: 10.87 254: 10.87 255: 11.34 256: 11.34
 257: 12.73 258: 12.72 259:  9.42 260:  9.40 261: 12.66 262: 10.40 263: 10.40 264: 10.31
 265: 10.30 266: 10.88 267:  8.51 268:  8.17 269:  8.16 270: 12.31 271:  3.02 272:  3.37
 273:  4.45 274: 10.07 275: 11.02 276:  3.54 277:  3.57 278:  3.06 279:  3.06 280:  3.62
 281:  4.74 282:  4.25 283:  4.42 284:  4.08 285:  3.62 286:  3.85 287:  7.10 288:  7.34
 289:  8.59 290:  8.51 291:  7.88 292:  7.90 293:  6.39 294:  6.41 295:  6.28 296:  6.12
 297:  7.97 298:  4.85 299:  4.65 300:  4.75 301:  4.60 302:  5.88 303:  8.46 304:  8.47
 305:  2.06 306:  3.38 307:  3.67 308:  2.04 309:  2.04 310:  2.13 311:  1.97 312:  2.17
 313:  2.08 314:  4.23 315:  3.04 316:  3.83 317:  4.66 318:  4.77 319: 10.61 320: 10.58
 321: 12.35 322: 12.35 323: 13.20 324: 13.20 325: 13.21 326: 13.21 327: 13.20 328: 13.20
 329: 13.21 330: 13.21 331: 13.21 332: 13.21 333: 13.21 334: 13.22 335: 13.22 336: 13.22
 337:  1.74 338:  1.74 339:  1.74 340:  1.74 341:  1.74 342:  1.74 343:  1.74 344:  1.76
 345:  1.76 346:  1.76 347:  1.76 348:  1.76 349:  1.76 350:  1.76 351:  1.62 352:  1.62
 353:  1.62 354:  1.62 355:  1.62 356:  1.62 357:  1.62 358:  1.61 359:  1.61 360:  1.61
 361:  1.61 362:  1.61 363:  1.61 364:  1.61 365:  1.84 366:  1.83 367:  1.83 368:  1.83
 369:  1.84 370:  1.83 371:  1.83 372:  1.83 373:  1.83 374:  1.83 375:  1.83 376:  1.83
 377:  1.83 378:  1.83
 IR intensities (km·mol⁻¹)
   1:  0.01   2:  0.00   3:  0.00   4:  0.00   5:  0.00   6:  0.00   7:  0.04   8:  0.01
   9:  0.00  10:  0.00  11:  0.02  12:  0.01  13:  0.00  14:  0.00  15:  0.01  16:  0.01
  17:  0.01  18:  0.00  19:  0.02  20:  0.02  21:  0.47  22:  1.04  23: 50.76  24:  0.11
  25:  3.46  26:  5.20  27: 49.81  28: 42.64  29:  0.00  30:  0.01  31:  0.00  32:  0.00
  33:  0.00  34:  0.00  35:  0.01  36:  0.00  37:  0.00  38:  0.00  39:  0.00  40:  0.01
  41:  0.01  42:  0.00  43:  0.01  44:  0.01  45:  0.01  46:  0.04  47: 11.53  48: 10.62
  49:  0.00  50:  0.00  51:  8.30  52:  8.38  53:  0.02  54:  0.07  55:  6.90  56:  0.02
  57:  0.00  58:  0.00  59:  0.00  60:  0.00  61:  0.00  62:  0.01  63:  0.00  64:  1.46
  65: 33.71  66: 32.09  67:  0.84  68:  3.22  69:  2.67  70:  1.83  71:  1.05  72:  0.06
  73:  0.28  74:  0.18  75:  0.27  76:  0.12  77:  0.38  78:226.88  79:222.75  80:  1.15
  81:  0.35  82:  1.65  83:  0.00  84:  0.00  85:  0.00  86:  0.00  87: 34.07  88: 34.48
  89:  0.02  90:  0.00  91:  0.01  92:  0.03  93:  0.00  94:  0.00  95:  0.00  96:  0.00
  97:  0.00  98:  0.00  99:  0.00 100:  0.02 101: 78.33 102: 78.23 103:  0.14 104:  0.15
 105:  0.01 106:  0.01 107:  0.01 108:  0.03 109:  0.01 110:  0.03 111:  0.04 112:154.57
 113:  0.14 114:  0.03 115:  0.01 116:  9.14 117:  9.11 118:  0.02 119:  0.00 120:  0.10
 121:  0.22 122:  0.06 123:  0.24 124:  0.01 125:  0.01 126:  0.03 127:  0.01 128:  0.10
 129:  0.16 130:  0.03 131:  0.25 132:  1.32 133:  0.63 134:  1.42 135:  0.79 136: 42.34
 137:312.54 138:220.96 139:220.93 140:  0.14 141:  0.02 142:  0.06 143:  0.06 144:  0.07
 145:  0.38 146:  0.95 147:868.41 148:871.16 149:  0.01 150:  0.03 151:  0.00 152:  0.00
 153:126.35 154:126.98 155:  6.11 156:  0.00 157:  0.00 158:  0.01 159:  0.01 160:  0.01
 161:  0.00 162:  0.07 163:  0.02 164:  0.04 165:  0.27 166: 13.24 167: 10.02 168:  4.43
 169:****** 170:  0.17 171: 13.72 172:  1.61 173:  0.02 174:  0.12 175:  0.32 176:  0.02
 177:  0.03 178:  0.03 179:  0.04 180:  7.05 181:  7.69 182:  0.01 183:  0.01 184:  0.01
 185:  0.05 186:138.91 187:138.22 188:  0.02 189:  0.00 190:  0.00 191:  0.01 192:  0.00
 193:  0.01 194:  0.01 195:  0.00 196:  0.00 197:  0.01 198:  0.02 199:  0.02 200:  0.00
 201:  0.03 202:  0.00 203:  0.04 204:  0.08 205:  0.00 206:  0.02 207:  0.07 208:  0.54
 209:****** 210:****** 211: 29.44 212: 84.57 213:  0.08 214:  0.11 215:  0.01 216:  0.04
 217:  0.32 218:  0.14 219:  0.20 220:  0.05 221:755.50 222:767.90 223: 89.55 224: 94.67
 225:  4.92 226:  0.26 227:  0.15 228:****** 229:  1.23 230: 10.75 231:  1.58 232:  3.89
 233:  0.97 234:  0.02 235:  0.01 236:  0.03 237:  0.09 238:  0.15 239:  0.06 240:  8.52
 241: 17.42 242:****** 243:****** 244:****** 245:220.91 246:  3.45 247:  9.52 248:  1.87
 249:  0.26 250:  0.07 251:  0.01 252:  0.01 253:  0.00 254:  0.05 255:  0.19 256:  0.31
 257:363.98 258:365.27 259:  1.72 260:  0.43 261:  0.06 262:  0.05 263:  0.22 264:  0.03
 265:  0.11 266:792.83 267:176.57 268:  0.22 269:  0.01 270:  0.06 271:  1.06 272:  1.83
 273: 38.18 274:215.48 275:248.12 276:  0.44 277:  0.48 278:  0.23 279:  0.03 280:  0.14
 281:  0.05 282:  3.10 283:  2.26 284:  3.30 285:  0.50 286:  2.63 287:  0.29 288:  0.02
 289:  0.07 290:  0.10 291:  0.56 292:  0.14 293:  0.03 294:  0.36 295:  0.24 296:  0.84
 297:  2.39 298:  1.44 299:  2.88 300: 24.23 301: 17.28 302:  3.19 303:****** 304:******
 305:316.52 306:  6.90 307:  6.74 308:  6.07 309: 20.37 310:  7.11 311:  1.24 312:  6.76
 313:  6.82 314:  0.85 315:  2.18 316:  3.04 317:  0.75 318:  2.42 319:  0.45 320:  0.73
 321:  0.03 322:  0.13 323:  0.08 324:  0.02 325:  0.09 326:  3.30 327:254.19 328:  7.90
 329:****** 330:435.16 331:  0.67 332:  0.12 333:  0.28 334:****** 335:****** 336:  0.12
 337:  0.35 338:  0.53 339:  0.90 340:  0.24 341:  0.11 342:  0.02 343:  0.03 344: 11.58
 345:  5.94 346:  6.04 347:  0.41 348:122.77 349: 81.26 350: 91.37 351:  2.40 352:  2.41
 353:  0.83 354:  5.68 355:  1.17 356: 13.82 357: 36.08 358: 16.34 359: 11.99 360:  1.89
 361:  5.55 362:137.02 363: 88.53 364: 57.42 365:  0.10 366:  0.15 367:  0.07 368:  0.06
 369:  0.04 370:  0.04 371:  0.01 372:  0.26 373:  0.27 374:  0.26 375:  0.35 376:  0.39
 377:  0.34 378:  0.24
 Raman intensities (amu)
   1:  0.00   2:  0.00   3:  0.00   4:  0.00   5:  0.00   6:  0.00   7:  0.00   8:  0.00
   9:  0.00  10:  0.00  11:  0.00  12:  0.00  13:  0.00  14:  0.00  15:  0.00  16:  0.00
  17:  0.00  18:  0.00  19:  0.00  20:  0.00  21:  0.00  22:  0.00  23:  0.00  24:  0.00
  25:  0.00  26:  0.00  27:  0.00  28:  0.00  29:  0.00  30:  0.00  31:  0.00  32:  0.00
  33:  0.00  34:  0.00  35:  0.00  36:  0.00  37:  0.00  38:  0.00  39:  0.00  40:  0.00
  41:  0.00  42:  0.00  43:  0.00  44:  0.00  45:  0.00  46:  0.00  47:  0.00  48:  0.00
  49:  0.00  50:  0.00  51:  0.00  52:  0.00  53:  0.00  54:  0.00  55:  0.00  56:  0.00
  57:  0.00  58:  0.00  59:  0.00  60:  0.00  61:  0.00  62:  0.00  63:  0.00  64:  0.00
  65:  0.00  66:  0.00  67:  0.00  68:  0.00  69:  0.00  70:  0.00  71:  0.00  72:  0.00
  73:  0.00  74:  0.00  75:  0.00  76:  0.00  77:  0.00  78:  0.00  79:  0.00  80:  0.00
  81:  0.00  82:  0.00  83:  0.00  84:  0.00  85:  0.00  86:  0.00  87:  0.00  88:  0.00
  89:  0.00  90:  0.00  91:  0.00  92:  0.00  93:  0.00  94:  0.00  95:  0.00  96:  0.00
  97:  0.00  98:  0.00  99:  0.00 100:  0.00 101:  0.00 102:  0.00 103:  0.00 104:  0.00
 105:  0.00 106:  0.00 107:  0.00 108:  0.00 109:  0.00 110:  0.00 111:  0.00 112:  0.00
Molecule has the following symmetry elements: (C7) 7*(C2) (S7) 8*(sigma) 
It seems to be the D7h point group
 113:  0.00 114:  0.00 115:  0.00 116:  0.00 117:  0.00 118:  0.00 119:  0.00 120:  0.00
 121:  0.00 122:  0.00 123:  0.00 124:  0.00 125:  0.00 126:  0.00 127:  0.00 128:  0.00
 129:  0.00 130:  0.00 131:  0.00 132:  0.00 133:  0.00 134:  0.00 135:  0.00 136:  0.00
 137:  0.00 138:  0.00 139:  0.00 140:  0.00 141:  0.00 142:  0.00 143:  0.00 144:  0.00
 145:  0.00 146:  0.00 147:  0.00 148:  0.00 149:  0.00 150:  0.00 151:  0.00 152:  0.00
 153:  0.00 154:  0.00 155:  0.00 156:  0.00 157:  0.00 158:  0.00 159:  0.00 160:  0.00
 161:  0.00 162:  0.00 163:  0.00 164:  0.00 165:  0.00 166:  0.00 167:  0.00 168:  0.00
 169:  0.00 170:  0.00 171:  0.00 172:  0.00 173:  0.00 174:  0.00 175:  0.00 176:  0.00
 177:  0.00 178:  0.00 179:  0.00 180:  0.00 181:  0.00 182:  0.00 183:  0.00 184:  0.00
 185:  0.00 186:  0.00 187:  0.00 188:  0.00 189:  0.00 190:  0.00 191:  0.00 192:  0.00
 193:  0.00 194:  0.00 195:  0.00 196:  0.00 197:  0.00 198:  0.00 199:  0.00 200:  0.00
 201:  0.00 202:  0.00 203:  0.00 204:  0.00 205:  0.00 206:  0.00 207:  0.00 208:  0.00
 209:  0.00 210:  0.00 211:  0.00 212:  0.00 213:  0.00 214:  0.00 215:  0.00 216:  0.00
 217:  0.00 218:  0.00 219:  0.00 220:  0.00 221:  0.00 222:  0.00 223:  0.00 224:  0.00
 225:  0.00 226:  0.00 227:  0.00 228:  0.00 229:  0.00 230:  0.00 231:  0.00 232:  0.00
 233:  0.00 234:  0.00 235:  0.00 236:  0.00 237:  0.00 238:  0.00 239:  0.00 240:  0.00
 241:  0.00 242:  0.00 243:  0.00 244:  0.00 245:  0.00 246:  0.00 247:  0.00 248:  0.00
 249:  0.00 250:  0.00 251:  0.00 252:  0.00 253:  0.00 254:  0.00 255:  0.00 256:  0.00
 257:  0.00 258:  0.00 259:  0.00 260:  0.00 261:  0.00 262:  0.00 263:  0.00 264:  0.00
 265:  0.00 266:  0.00 267:  0.00 268:  0.00 269:  0.00 270:  0.00 271:  0.00 272:  0.00
 273:  0.00 274:  0.00 275:  0.00 276:  0.00 277:  0.00 278:  0.00 279:  0.00 280:  0.00
 281:  0.00 282:  0.00 283:  0.00 284:  0.00 285:  0.00 286:  0.00 287:  0.00 288:  0.00
 289:  0.00 290:  0.00 291:  0.00 292:  0.00 293:  0.00 294:  0.00 295:  0.00 296:  0.00
 297:  0.00 298:  0.00 299:  0.00 300:  0.00 301:  0.00 302:  0.00 303:  0.00 304:  0.00
 305:  0.00 306:  0.00 307:  0.00 308:  0.00 309:  0.00 310:  0.00 311:  0.00 312:  0.00
 313:  0.00 314:  0.00 315:  0.00 316:  0.00 317:  0.00 318:  0.00 319:  0.00 320:  0.00
 321:  0.00 322:  0.00 323:  0.00 324:  0.00 325:  0.00 326:  0.00 327:  0.00 328:  0.00
 329:  0.00 330:  0.00 331:  0.00 332:  0.00 333:  0.00 334:  0.00 335:  0.00 336:  0.00
 337:  0.00 338:  0.00 339:  0.00 340:  0.00 341:  0.00 342:  0.00 343:  0.00 344:  0.00
 345:  0.00 346:  0.00 347:  0.00 348:  0.00 349:  0.00 350:  0.00 351:  0.00 352:  0.00
 353:  0.00 354:  0.00 355:  0.00 356:  0.00 357:  0.00 358:  0.00 359:  0.00 360:  0.00
 361:  0.00 362:  0.00 363:  0.00 364:  0.00 365:  0.00 366:  0.00 367:  0.00 368:  0.00
 369:  0.00 370:  0.00 371:  0.00 372:  0.00 373:  0.00 374:  0.00 375:  0.00 376:  0.00
 377:  0.00 378:  0.00
 output can be read by thermo (or use thermo option).
 writing <g98.out> molden fake output.
 recommended (thermochemical) frequency scaling factor: 1.0
           -------------------------------------------------
          |             Thermodynamic Functions             |
           -------------------------------------------------

d7h symmetry found (for desy threshold:  0.10E+00) used in thermo

          ...................................................
          :                      SETUP                      :
          :.................................................:
          :  # frequencies                         372      :
          :  # imaginary freq.                       0      :
          :  linear?                             false      :
          :  only rotor calc.                    false      :
          :  symmetry                              d7h      :
          :  rotational number                      14      :
          :  scaling factor                  1.0000000      :
          :  rotor cutoff                   50.0000000 cm⁻¹ :
          :  imag. cutoff                  -20.0000000 cm⁻¹ :
          :.................................................:

    mode    ω/cm⁻¹     T·S(HO)/kcal·mol⁻¹    T·S(FR)/kcal·mol⁻¹   T·S(vib)
   ------------------------------------------------------------------------
       1     17.11    -2.07046 (  1.35%)    -1.37425 ( 98.65%)    -1.38366
       2     17.40    -2.06036 (  1.45%)    -1.36920 ( 98.55%)    -1.37919
       3     18.08    -2.03787 (  1.68%)    -1.35795 ( 98.32%)    -1.36937
       4     18.96    -2.00958 (  2.03%)    -1.34379 ( 97.97%)    -1.35728
       5     40.44    -1.56156 ( 29.96%)    -1.11942 ( 70.04%)    -1.25191
       6     41.67    -1.54387 ( 32.54%)    -1.11055 ( 67.46%)    -1.25154
       7     43.22    -1.52232 ( 35.82%)    -1.09974 ( 64.18%)    -1.25111
       8     43.98    -1.51202 ( 37.44%)    -1.09456 ( 62.56%)    -1.25086
       9     61.48    -1.31453 ( 69.57%)    -0.99529 ( 30.43%)    -1.21740
      10     61.58    -1.31363 ( 69.70%)    -0.99484 ( 30.30%)    -1.21705
      11     62.41    -1.30577 ( 70.82%)    -0.99088 ( 29.18%)    -1.21389
      12     62.79    -1.30213 ( 71.33%)    -0.98905 ( 28.67%)    -1.21237
      13     65.55    -1.27691 ( 74.71%)    -0.97634 ( 25.29%)    -1.20089
      14     66.67    -1.26691 ( 75.97%)    -0.97129 ( 24.03%)    -1.19588
      15     80.54    -1.15610 ( 87.07%)    -0.91531 ( 12.93%)    -1.12497
      16     81.60    -1.14846 ( 87.65%)    -0.91144 ( 12.35%)    -1.11917
      17     82.53    -1.14185 ( 88.13%)    -0.90809 ( 11.87%)    -1.11409
      18     84.61    -1.12731 ( 89.13%)    -0.90072 ( 10.87%)    -1.10268
      19     87.14    -1.11007 ( 90.22%)    -0.89197 (  9.78%)    -1.08874
      20     87.57    -1.10724 ( 90.39%)    -0.89054 (  9.61%)    -1.08642
      21     88.73    -1.09954 ( 90.84%)    -0.88663 (  9.16%)    -1.08004
      22     89.55    -1.09415 ( 91.14%)    -0.88390 (  8.86%)    -1.07553
      23    112.52    -0.96152 ( 96.25%)    -0.81626 (  3.75%)    -0.95607
      24    113.05    -0.95883 ( 96.31%)    -0.81488 (  3.69%)    -0.95352
      25    130.22    -0.87741 ( 97.87%)    -0.77299 (  2.13%)    -0.87519
      26    134.72    -0.85795 ( 98.14%)    -0.76293 (  1.86%)    -0.85618
      27    135.18    -0.85597 ( 98.16%)    -0.76190 (  1.84%)    -0.85424
      28    138.14    -0.84359 ( 98.31%)    -0.75549 (  1.69%)    -0.84211
      29    138.26    -0.84311 ( 98.32%)    -0.75524 (  1.68%)    -0.84164
      30    146.21    -0.81126 ( 98.65%)    -0.73868 (  1.35%)    -0.81028
      31    146.46    -0.81030 ( 98.66%)    -0.73817 (  1.34%)    -0.80933
      32    146.93    -0.80846 ( 98.68%)    -0.73722 (  1.32%)    -0.80751
      33    147.41    -0.80661 ( 98.69%)    -0.73625 (  1.31%)    -0.80569
      34    149.49    -0.79867 ( 98.76%)    -0.73211 (  1.24%)    -0.79785
      35    150.12    -0.79629 ( 98.78%)    -0.73087 (  1.22%)    -0.79549
      36    165.01    -0.74286 ( 99.16%)    -0.70284 (  0.84%)    -0.74252
      37    170.83    -0.72340 ( 99.27%)    -0.69257 (  0.73%)    -0.72318
      38    171.36    -0.72168 ( 99.28%)    -0.69166 (  0.72%)    -0.72146
      39    171.57    -0.72099 ( 99.28%)    -0.69129 (  0.72%)    -0.72078
      40    171.88    -0.71999 ( 99.29%)    -0.69076 (  0.71%)    -0.71978
      41    176.49    -0.70520 ( 99.36%)    -0.68292 (  0.64%)    -0.70506
      42    176.69    -0.70455 ( 99.36%)    -0.68258 (  0.64%)    -0.70441
      43    192.99    -0.65562 ( 99.55%)    -0.65645 (  0.45%)    -0.65562
      44    197.85    -0.64192 ( 99.59%)    -0.64908 (  0.41%)    -0.64195
      45    219.06    -0.58641 ( 99.73%)    -0.61890 (  0.27%)    -0.58649
      46    219.40    -0.58557 ( 99.73%)    -0.61844 (  0.27%)    -0.58566
      47    224.65    -0.57284 ( 99.76%)    -0.61144 (  0.24%)    -0.57294
      48    224.86    -0.57233 ( 99.76%)    -0.61116 (  0.24%)    -0.57243
      49    226.12    -0.56934 ( 99.76%)    -0.60951 (  0.24%)    -0.56943
      50    243.51    -0.52984 ( 99.82%)    -0.58756 (  0.18%)    -0.52994
      51    243.92    -0.52895 ( 99.82%)    -0.58706 (  0.18%)    -0.52905
      52    245.21    -0.52616 ( 99.83%)    -0.58549 (  0.17%)    -0.52626
      53    245.29    -0.52598 ( 99.83%)    -0.58540 (  0.17%)    -0.52609
      54    273.47    -0.46935 ( 99.89%)    -0.55319 (  0.11%)    -0.46944
      55    273.95    -0.46844 ( 99.89%)    -0.55267 (  0.11%)    -0.46854
      56    279.40    -0.45835 ( 99.90%)    -0.54683 (  0.10%)    -0.45844
      57    279.82    -0.45758 ( 99.90%)    -0.54638 (  0.10%)    -0.45767
   ------------------------------------------------------------------------

   temp. (K)  partition function   enthalpy   heat capacity  entropy
                                   cal/mol     cal/K/mol   cal/K/mol   J/K/mol
 298.15  VIB  0.916E+27            38152.117    241.741    236.035
         ROT  0.184E+08              888.752      2.981     36.224
         INT  0.168E+35            39040.869    244.722    272.259
         TR   0.384E+29             1481.254      4.968     47.010
         TOT                       40522.1228   249.6902   319.2689  1335.8213

       T/K    H(0)-H(T)+PV         H(T)/Eh          T*S/Eh         G(T)/Eh
   ------------------------------------------------------------------------
    298.15    0.645761E-01    0.987745E+00    0.151695E+00    0.836050E+00
   ------------------------------------------------------------------------

         :::::::::::::::::::::::::::::::::::::::::::::::::::::
         ::                  THERMODYNAMIC                  ::
         :::::::::::::::::::::::::::::::::::::::::::::::::::::
         :: total free energy        -250.338062843691 Eh   ::
         ::.................................................::
         :: total energy             -251.174112942183 Eh   ::
         :: zero point energy           0.923168965628 Eh   ::
         :: G(RRHO) w/o ZPVE           -0.087118867136 Eh   ::
         :: G(RRHO) contrib.            0.836050098492 Eh   ::
         :::::::::::::::::::::::::::::::::::::::::::::::::::::

optimized geometry written to: xtbopt.sdf


           -------------------------------------------------
          | TOTAL ENERGY             -251.174112942183 Eh   |
          | TOTAL ENTHALPY           -250.186367863423 Eh   |
          | TOTAL FREE ENERGY        -250.338062843691 Eh   |
          | GRADIENT NORM               0.000046756064 Eh/α |
          | HOMO-LUMO GAP               5.380754439101 eV   |
           -------------------------------------------------

------------------------------------------------------------------------
 * finished run on 2023/09/12 at 09:10:21.573     
------------------------------------------------------------------------
 total:
 * wall-time:     0 d,  0 h,  2 min,  8.622 sec
 *  cpu-time:     0 d,  0 h, 14 min, 42.310 sec
 * ratio c/w:     6.860 speedup
 SCF:
 * wall-time:     0 d,  0 h,  0 min,  0.501 sec
 *  cpu-time:     0 d,  0 h,  0 min,  1.351 sec
 * ratio c/w:     2.696 speedup
 ANC optimizer:
 * wall-time:     0 d,  0 h,  0 min, 13.517 sec
 *  cpu-time:     0 d,  0 h,  0 min, 45.124 sec
 * ratio c/w:     3.338 speedup
 analytical hessian:
 * wall-time:     0 d,  0 h,  1 min, 54.045 sec
 *  cpu-time:     0 d,  0 h, 13 min, 55.192 sec
 * ratio c/w:     7.323 speedup

