      -----------------------------------------------------------      
     |                   =====================                   |     
     |                           x T B                           |     
     |                   =====================                   |     
     |                         S. Grimme                         |     
     |          Mulliken Center for Theoretical Chemistry        |     
     |                    University of Bonn                     |     
      -----------------------------------------------------------      

   * xtb version 6.6.1 (8d0f1dd) compiled by 'conda@1efc2f54142f' on 2023-08-01

   xtb is free software: you can redistribute it and/or modify it under
   the terms of the GNU Lesser General Public License as published by
   the Free Software Foundation, either version 3 of the License, or
   (at your option) any later version.
   
   xtb is distributed in the hope that it will be useful,
   but WITHOUT ANY WARRANTY; without even the implied warranty of
   MERCHANTABILITY or FITNESS FOR A PARTICULAR PURPOSE.  See the
   GNU Lesser General Public License for more details.
   
   Cite this work as:
   * C. Bannwarth, E. Caldeweyher, S. Ehlert, A. Hansen, P. Pracht,
     J. Seibert, S. Spicher, S. Grimme, WIREs Comput. Mol. Sci., 2020, 11,
     e01493. DOI: 10.1002/wcms.1493
   
   for GFN2-xTB:
   * C. Bannwarth, S. Ehlert and S. Grimme., J. Chem. Theory Comput., 2019,
     15, 1652-1671. DOI: 10.1021/acs.jctc.8b01176
   for GFN1-xTB:
   * S. Grimme, C. Bannwarth, P. Shushkov, J. Chem. Theory Comput., 2017,
     13, 1989-2009. DOI: 10.1021/acs.jctc.7b00118
   for GFN0-xTB:
   * P. Pracht, E. Caldeweyher, S. Ehlert, S. Grimme, ChemRxiv, 2019, preprint.
     DOI: 10.26434/chemrxiv.8326202.v1
   for GFN-FF:
   * S. Spicher and S. Grimme, Angew. Chem. Int. Ed., 2020, 59, 15665-15673.
     DOI: 10.1002/anie.202004239
   
   for ALPB and GBSA implicit solvation:
   * S. Ehlert, M. Stahn, S. Spicher, S. Grimme, J. Chem. Theory Comput.,
     2021, 17, 4250-4261. DOI: 10.1021/acs.jctc.1c00471
   
   for DFT-D4:
   * E. Caldeweyher, C. Bannwarth and S. Grimme, J. Chem. Phys., 2017,
     147, 034112. DOI: 10.1063/1.4993215
   * E. Caldeweyher, S. Ehlert, A. Hansen, H. Neugebauer, S. Spicher,
     C. Bannwarth and S. Grimme, J. Chem. Phys., 2019, 150, 154122.
     DOI: 10.1063/1.5090222
   * E. Caldeweyher, J.-M. Mewes, S. Ehlert and S. Grimme, Phys. Chem. Chem. Phys.
     2020, 22, 8499-8512. DOI: 10.1039/D0CP00502A
   
   for sTDA-xTB:
   * S. Grimme and C. Bannwarth, J. Chem. Phys., 2016, 145, 054103.
     DOI: 10.1063/1.4959605
   
   in the mass-spec context:
   * V. Asgeirsson, C. Bauer and S. Grimme, Chem. Sci., 2017, 8, 4879.
     DOI: 10.1039/c7sc00601b
   * J. Koopman and S. Grimme, ACS Omega 2019, 4, 12, 15120-15133.
     DOI: 10.1021/acsomega.9b02011
   
   for metadynamics refer to:
   * S. Grimme, J. Chem. Theory Comput., 2019, 155, 2847-2862
     DOI: 10.1021/acs.jctc.9b00143
   
   for SPH calculations refer to:
   * S. Spicher and S. Grimme, J. Chem. Theory Comput., 2021, 17, 1701-1714
     DOI: 10.1021/acs.jctc.0c01306
   
   with help from (in alphabetical order)
   P. Atkinson, C. Bannwarth, F. Bohle, G. Brandenburg, E. Caldeweyher
   M. Checinski, S. Dohm, S. Ehlert, S. Ehrlich, I. Gerasimov, C. Hölzer
   A. Katbashev, J. Koopman, C. Lavigne, S. Lehtola, F. März, M. Müller,
   F. Musil, H. Neugebauer, J. Pisarek, C. Plett, P. Pracht, F. Pultar,
   J. Seibert, P. Shushkov, S. Spicher, M. Stahn, M. Steiner, T. Strunk,
   J. Stückrath, T. Rose, and J. Unsleber
   
 * started run on 2023/11/11 at 14:06:27.685     

           -------------------------------------------------
          |                Calculation Setup                |
           -------------------------------------------------

          program call               : xtb mol.sdf --opt crude --alpb water
          coordinate file            : mol.sdf
          omp threads                :                     8

   ID    Z sym.   atoms
    1    7 N      1, 4, 6, 8, 11, 14, 16, 18, 21, 24, 26, 28, 31, 34, 36, 38,
                  41, 44, 46, 48, 55, 58, 60, 62, 73, 76, 78, 80
    2    6 C      2, 3, 5, 7, 12, 13, 15, 17, 22, 23, 25, 27, 32, 33, 35, 37,
                  42, 43, 45, 47, 51-54, 56, 57, 59, 61, 65-72, 74, 75, 77,
                  79, 83, 84, 127-133
    3    8 O      9, 10, 19, 20, 29, 30, 39, 40, 49, 50, 63, 64, 81, 82
    4    1 H      85-126, 134-140

molecular fragmentation (1/2 indicates fragments):
111111111111111111111111111111111111111111111111111111111111111111111111
11111111111111111111111111111111111111111111111111111122222222222222
# atoms in fragment 1/2:   126    14
 fragment masses (1/2) :     1162.96       91.13
CMA distance (Bohr)    :   7.558
constraining FC (au)   :  0.0500

           -------------------------------------------------
          |                 G F N 2 - x T B                 |
           -------------------------------------------------

        Reference                      10.1021/acs.jctc.8b01176
      * Hamiltonian:
        H0-scaling (s, p, d)           1.850000    2.230000    2.230000
        zeta-weighting                 0.500000
      * Dispersion:
        s8                             2.700000
        a1                             0.520000
        a2                             5.000000
        s9                             5.000000
      * Repulsion:
        kExp                           1.500000    1.000000
        rExp                           1.000000
      * Coulomb:
        alpha                          2.000000
        third order                    shell-resolved
        anisotropic                    true
        a3                             3.000000
        a5                             4.000000
        cn-shift                       1.200000
        cn-exp                         4.000000
        max-rad                        5.000000

      * Solvation model:               ALPB
        Solvent                        water
        Parameter file                 internal GFN2-xTB/ALPB
        Dielectric constant                8.0200E+01
        Reference state                gsolv [1 M gas/solution]
        Free energy shift                  1.0808E-03 Eh       6.7819E-01 kcal/mol
        Temperature                        2.9815E+02 K
        Density                            1.0000E+00 kg/L
        Solvent mass                       1.8000E+01 g/mol
        Interaction kernel             P16
        Born radius scaling (c1)           1.4744E+00
        Born radii integrator          GBOBC
        Born offset                        0.0000E+00 a0       0.0000E+00 AA
        H-bond correction              true
        Ion screening                  false
        Surface tension                    1.0000E-05 Eh       1.5569E+01 dyn/cm
        Grid points                               230 per atom

          ...................................................
          :                      SETUP                      :
          :.................................................:
          :  # basis functions                 413          :
          :  # atomic orbitals                 413          :
          :  # shells                          231          :
          :  # electrons                       468          :
          :  max. iterations                   250          :
          :  Hamiltonian                  GFN2-xTB          :
          :  restarted?                      false          :
          :  GBSA solvation                   true          :
          :  PC potential                    false          :
          :  electronic temp.          300.0000000     K    :
          :  accuracy                    1.0000000          :
          :  -> integral cutoff          0.2500000E+02      :
          :  -> integral neglect         0.1000000E-07      :
          :  -> SCF convergence          0.1000000E-05 Eh   :
          :  -> wf. convergence          0.1000000E-03 e    :
          :  Broyden damping             0.4000000          :
          ...................................................

 iter      E             dE          RMSdq      gap      omega  full diag
   1   -271.4904229 -0.271490E+03  0.458E+00    2.35       0.0  T
   2   -271.9001317 -0.409709E+00  0.261E+00    2.33       1.0  T
   3   -271.9070403 -0.690868E-02  0.977E-01    1.89       1.0  T
   4   -271.9087794 -0.173906E-02  0.148E-01    1.91       1.0  T
   5   -271.9095622 -0.782829E-03  0.785E-02    2.00       1.0  T
   6   -271.9096449 -0.826724E-04  0.279E-02    2.06       1.0  T
   7   -271.9096541 -0.918772E-05  0.104E-02    2.07       1.0  T
   8   -271.9096574 -0.333493E-05  0.452E-03    2.06       1.9  T
   9   -271.9096578 -0.424059E-06  0.186E-03    2.07       4.5  T
  10   -271.9096580 -0.126262E-06  0.740E-04    2.07      11.4  T
  11   -271.9096580 -0.282520E-07  0.330E-04    2.07      25.6  T

   *** convergence criteria satisfied after 11 iterations ***

         #    Occupation            Energy/Eh            Energy/eV
      -------------------------------------------------------------
         1        2.0000           -0.7428776             -20.2147
       ...           ...                  ...                  ...
       228        2.0000           -0.4165183             -11.3340
       229        2.0000           -0.4161713             -11.3246
       230        2.0000           -0.4150610             -11.2944
       231        2.0000           -0.4146412             -11.2830
       232        2.0000           -0.4144244             -11.2771
       233        2.0000           -0.4140356             -11.2665
       234        2.0000           -0.4128052             -11.2330 (HOMO)
       235                         -0.3367733              -9.1641 (LUMO)
       236                         -0.3363072              -9.1514
       237                         -0.2506929              -6.8217
       238                         -0.2480869              -6.7508
       239                         -0.2475691              -6.7367
       ...                                ...                  ...
       413                          0.8305936              22.6016
      -------------------------------------------------------------
                  HL-Gap            0.0760319 Eh            2.0689 eV
             Fermi-level           -0.3747892 Eh          -10.1985 eV

 SCC (total)                   0 d,  0 h,  0 min,  0.763 sec
 SCC setup                      ...        0 min,  0.009 sec (  1.192%)
 Dispersion                     ...        0 min,  0.014 sec (  1.775%)
 classical contributions        ...        0 min,  0.001 sec (  0.066%)
 integral evaluation            ...        0 min,  0.030 sec (  3.912%)
 iterations                     ...        0 min,  0.570 sec ( 74.728%)
 molecular gradient             ...        0 min,  0.134 sec ( 17.618%)
 printout                       ...        0 min,  0.005 sec (  0.701%)

         :::::::::::::::::::::::::::::::::::::::::::::::::::::
         ::                     SUMMARY                     ::
         :::::::::::::::::::::::::::::::::::::::::::::::::::::
         :: total energy            -269.063903926556 Eh    ::
         :: total w/o Gsasa/hb      -269.062816973500 Eh    ::
         :: gradient norm              0.226902130742 Eh/a0 ::
         :: HOMO-LUMO gap              2.068933687388 eV    ::
         ::.................................................::
         :: SCC energy              -271.909657997554 Eh    ::
         :: -> isotropic ES            0.777917178582 Eh    ::
         :: -> anisotropic ES          0.006278160856 Eh    ::
         :: -> anisotropic XC          0.075990007775 Eh    ::
         :: -> dispersion             -0.214097552294 Eh    ::
         :: -> Gsolv                  -0.167981683580 Eh    ::
         ::    -> Gelec               -0.166894730525 Eh    ::
         ::    -> Gsasa                0.014429130462 Eh    ::
         ::    -> Ghb                 -0.016596843215 Eh    ::
         ::    -> Gshift               0.001080759698 Eh    ::
         :: repulsion energy           2.834000439066 Eh    ::
         :: add. restraining           0.000000000000 Eh    ::
         :: total charge               1.000000000000 e     ::
         :::::::::::::::::::::::::::::::::::::::::::::::::::::

      ----------------------------------------------------------- 
     |                   =====================                   |
     |                        A N C O P T                        |
     |                   =====================                   |
     |               Approximate Normal Coordinate               |
     |                Rational Function Optimizer                |
      ----------------------------------------------------------- 

          ...................................................
          :                      SETUP                      :
          :.................................................:
          :   optimization level             crude          :
          :   max. optcycles                   200          :
          :   ANC micro-cycles                  20          :
          :   degrees of freedom               414          :
          :.................................................:
          :   RF solver                   davidson          :
          :   write xtbopt.log                true          :
          :   linear?                        false          :
          :   energy convergence         0.5000000E-03 Eh   :
          :   grad. convergence          0.1000000E-01 Eh/α :
          :   maxmium RF displ.          1.0000000          :
          :   Hlow (freq-cutoff)         0.1000000E-01      :
          :   Hmax (freq-cutoff)         5.0000000          :
          :   S6 in model hess.         20.0000000          :
          ...................................................

generating ANC from model Hessian ...
Using Lindh-Hessian (1995)
 Shifting diagonal of input Hessian by    1.0000799941273586E-002
 Lowest  eigenvalues of input Hessian
    0.010000    0.000000    0.000000    0.000000    0.000000    0.000000
    0.000000    0.010110    0.010218    0.010255    0.010286    0.010311
    0.010465    0.010490    0.010793    0.010829    0.012938    0.012945
 Highest eigenvalues
    2.390731    2.391248    2.392246    2.392693    2.393042    2.393433


........................................................................
.............................. CYCLE    1 ..............................
........................................................................

 iter      E             dE          RMSdq      gap      omega  full diag
   1   -271.9096580 -0.271910E+03  0.128E-04    2.07       0.0  T
   2   -271.9096580 -0.337764E-09  0.868E-05    2.07      97.4  T
   3   -271.9096580 -0.103910E-09  0.566E-05    2.07     149.3  T
     SCC iter.                  ...        0 min,  0.182 sec
     gradient                   ...        0 min,  0.154 sec
 * total energy  :  -269.0639039 Eh     change       -0.3187438E-08 Eh
   gradient norm :     0.2268998 Eh/α   predicted     0.0000000E+00 (-100.00%)
   displ. norm   :     0.5439125 α      lambda       -0.8719249E-01
   maximum displ.:     0.2519407 α      in ANC's #44, #196, #169, ...

........................................................................
.............................. CYCLE    2 ..............................
........................................................................

 iter      E             dE          RMSdq      gap      omega  full diag
   1   -271.9460582 -0.271946E+03  0.193E-01    1.96       0.0  T
   2   -271.9462724 -0.214201E-03  0.114E-01    2.02       1.0  T
   3   -271.9462530  0.193793E-04  0.291E-02    2.07       1.0  T
   4   -271.9462959 -0.428901E-04  0.492E-03    2.07       1.7  T
   5   -271.9462970 -0.105226E-05  0.263E-03    2.07       3.2  T
   6   -271.9462970 -0.496473E-07  0.114E-03    2.07       7.4  T
   7   -271.9462971 -0.561686E-07  0.504E-04    2.07      16.8  T
   8   -271.9462971 -0.114076E-07  0.181E-04    2.07      46.7  T
     SCC iter.                  ...        0 min,  0.445 sec
     gradient                   ...        0 min,  0.123 sec
 * total energy  :  -269.1289514 Eh     change       -0.6504747E-01 Eh
   gradient norm :     0.0971164 Eh/α   predicted    -0.5651098E-01 ( -13.12%)
   displ. norm   :     0.6841475 α      lambda       -0.4677833E-01
   maximum displ.:     0.4381503 α      in ANC's #44, #18, #169, ...

........................................................................
.............................. CYCLE    3 ..............................
........................................................................

 iter      E             dE          RMSdq      gap      omega  full diag
   1   -271.9560259 -0.271956E+03  0.200E-01    2.03       0.0  T
   2   -271.9564907 -0.464805E-03  0.114E-01    2.08       1.0  T
   3   -271.9564994 -0.872524E-05  0.343E-02    2.09       1.0  T
   4   -271.9565036 -0.419196E-05  0.445E-03    2.09       1.9  T
   5   -271.9565045 -0.887006E-06  0.265E-03    2.09       3.2  T
   6   -271.9565047 -0.158977E-06  0.873E-04    2.09       9.7  T
   7   -271.9565047 -0.360997E-07  0.408E-04    2.09      20.7  T
     SCC iter.                  ...        0 min,  0.376 sec
     gradient                   ...        0 min,  0.139 sec
 * total energy  :  -269.1659473 Eh     change       -0.3699588E-01 Eh
   gradient norm :     0.0582834 Eh/α   predicted    -0.3433665E-01 (  -7.19%)
   displ. norm   :     0.7837615 α      lambda       -0.3172298E-01
   maximum displ.:     0.5516685 α      in ANC's #44, #18, #169, ...

........................................................................
.............................. CYCLE    4 ..............................
........................................................................

 iter      E             dE          RMSdq      gap      omega  full diag
   1   -271.9611106 -0.271961E+03  0.189E-01    2.09       0.0  T
   2   -271.9614449 -0.334320E-03  0.109E-01    2.12       1.0  T
   3   -271.9614548 -0.992859E-05  0.279E-02    2.11       1.0  T
   4   -271.9614633 -0.846360E-05  0.579E-03    2.11       1.5  T
   5   -271.9614646 -0.130407E-05  0.352E-03    2.11       2.4  T
   6   -271.9614647 -0.140952E-06  0.117E-03    2.11       7.2  T
   7   -271.9614648 -0.103735E-06  0.491E-04    2.11      17.2  T
   8   -271.9614648 -0.332875E-08  0.177E-04    2.11      47.7  T
     SCC iter.                  ...        0 min,  0.328 sec
     gradient                   ...        0 min,  0.125 sec
 * total energy  :  -269.1936268 Eh     change       -0.2767952E-01 Eh
   gradient norm :     0.0686922 Eh/α   predicted    -0.2560492E-01 (  -7.50%)
   displ. norm   :     0.8287046 α      lambda       -0.2856497E-01
   maximum displ.:     0.5845429 α      in ANC's #44, #18, #96, ...

........................................................................
.............................. CYCLE    5 ..............................
........................................................................

 iter      E             dE          RMSdq      gap      omega  full diag
   1   -271.9862882 -0.271986E+03  0.176E-01    2.13       0.0  T
   2   -271.9863536 -0.653725E-04  0.104E-01    2.13       1.0  T
   3   -271.9863665 -0.129204E-04  0.118E-02    2.12       1.0  T
   4   -271.9863720 -0.554156E-05  0.636E-03    2.12       1.3  T
   5   -271.9863729 -0.847065E-06  0.361E-03    2.12       2.3  T
   6   -271.9863733 -0.425424E-06  0.883E-04    2.12       9.6  T
   7   -271.9863733 -0.170907E-07  0.494E-04    2.12      17.1  T
     SCC iter.                  ...        0 min,  0.310 sec
     gradient                   ...        0 min,  0.112 sec
 * total energy  :  -269.2194032 Eh     change       -0.2577637E-01 Eh
   gradient norm :     0.0574517 Eh/α   predicted    -0.2409114E-01 (  -6.54%)
   displ. norm   :     0.8504149 α      lambda       -0.2645712E-01
   maximum displ.:     0.5939021 α      in ANC's #44, #18, #246, ...

........................................................................
.............................. CYCLE    6 ..............................
........................................................................

 iter      E             dE          RMSdq      gap      omega  full diag
   1   -272.0261386 -0.272026E+03  0.166E-01    2.16       0.0  T
   2   -272.0261765 -0.379361E-04  0.982E-02    2.15       1.0  T
   3   -272.0261877 -0.111956E-04  0.110E-02    2.13       1.0  T
   4   -272.0261936 -0.589782E-05  0.629E-03    2.13       1.3  T
   5   -272.0261947 -0.114207E-05  0.236E-03    2.13       3.6  T
   6   -272.0261949 -0.131319E-06  0.855E-04    2.13       9.9  T
   7   -272.0261949 -0.758524E-08  0.425E-04    2.13      19.9  T
     SCC iter.                  ...        0 min,  0.325 sec
     gradient                   ...        0 min,  0.123 sec
 * total energy  :  -269.2433976 Eh     change       -0.2399445E-01 Eh
   gradient norm :     0.0379640 Eh/α   predicted    -0.2279557E-01 (  -5.00%)
   displ. norm   :     0.8678667 α      lambda       -0.2336339E-01
   maximum displ.:     0.5853403 α      in ANC's #44, #18, #169, ...

........................................................................
.............................. CYCLE    7 ..............................
........................................................................

 iter      E             dE          RMSdq      gap      omega  full diag
   1   -272.0665364 -0.272067E+03  0.158E-01    2.19       0.0  T
   2   -272.0665750 -0.385545E-04  0.937E-02    2.19       1.0  T
   3   -272.0665808 -0.578367E-05  0.109E-02    2.17       1.0  T
   4   -272.0665890 -0.822442E-05  0.560E-03    2.17       1.5  T
   5   -272.0665897 -0.692279E-06  0.288E-03    2.17       2.9  T
   6   -272.0665899 -0.204530E-06  0.846E-04    2.17      10.0  T
   7   -272.0665899 -0.245057E-07  0.465E-04    2.17      18.2  T
     SCC iter.                  ...        0 min,  0.299 sec
     gradient                   ...        0 min,  0.138 sec
 * total energy  :  -269.2645499 Eh     change       -0.2115226E-01 Eh
   gradient norm :     0.0313747 Eh/α   predicted    -0.2048027E-01 (  -3.18%)
   displ. norm   :     0.8642635 α      lambda       -0.2000562E-01
   maximum displ.:     0.5798822 α      in ANC's #18, #44, #169, ...

........................................................................
.............................. CYCLE    8 ..............................
........................................................................

 iter      E             dE          RMSdq      gap      omega  full diag
   1   -272.1108089 -0.272111E+03  0.153E-01    2.23       0.0  T
   2   -272.1108452 -0.362395E-04  0.902E-02    2.22       1.0  T
   3   -272.1108466 -0.142594E-05  0.117E-02    2.22       1.0  T
   4   -272.1108576 -0.110135E-04  0.518E-03    2.22       1.6  T
   5   -272.1108583 -0.656210E-06  0.264E-03    2.22       3.2  T
   6   -272.1108584 -0.176800E-06  0.826E-04    2.22      10.2  T
   7   -272.1108585 -0.232420E-07  0.426E-04    2.22      19.9  T
     SCC iter.                  ...        0 min,  0.370 sec
     gradient                   ...        0 min,  0.151 sec
 * total energy  :  -269.2824395 Eh     change       -0.1788959E-01 Eh
   gradient norm :     0.0249043 Eh/α   predicted    -0.1747453E-01 (  -2.32%)
   displ. norm   :     0.8858187 α      lambda       -0.1684898E-01
   maximum displ.:     0.5922866 α      in ANC's #18, #44, #300, ...

........................................................................
.............................. CYCLE    9 ..............................
........................................................................

 iter      E             dE          RMSdq      gap      omega  full diag
   1   -272.1127454 -0.272113E+03  0.167E-01    2.27       0.0  T
   2   -272.1131469 -0.401492E-03  0.962E-02    2.29       1.0  T
   3   -272.1131519 -0.500728E-05  0.333E-02    2.28       1.0  T
   4   -272.1131718 -0.199334E-04  0.702E-03    2.28       1.2  T
   5   -272.1131751 -0.330538E-05  0.385E-03    2.28       2.2  T
   6   -272.1131753 -0.175676E-06  0.200E-03    2.28       4.2  T
   7   -272.1131755 -0.211936E-06  0.724E-04    2.28      11.7  T
   8   -272.1131755 -0.100355E-07  0.241E-04    2.28      35.1  T
     SCC iter.                  ...        0 min,  0.464 sec
     gradient                   ...        0 min,  0.172 sec
 * total energy  :  -269.2963159 Eh     change       -0.1387646E-01 Eh
   gradient norm :     0.0539674 Eh/α   predicted    -0.1503503E-01 (   8.35%)
   displ. norm   :     0.8105859 α      lambda       -0.1547214E-01
   maximum displ.:     0.5660416 α      in ANC's #18, #44, #169, ...

........................................................................
.............................. CYCLE   10 ..............................
........................................................................

 iter      E             dE          RMSdq      gap      omega  full diag
   1   -272.1663141 -0.272166E+03  0.148E-01    2.32       0.0  T
   2   -272.1665789 -0.264825E-03  0.883E-02    2.31       1.0  T
   3   -272.1665786  0.324785E-06  0.279E-02    2.31       1.0  T
   4   -272.1666031 -0.244898E-04  0.683E-03    2.31       1.2  T
   5   -272.1666061 -0.300587E-05  0.337E-03    2.31       2.5  T
   6   -272.1666065 -0.391673E-06  0.154E-03    2.31       5.5  T
   7   -272.1666066 -0.993028E-07  0.589E-04    2.31      14.4  T
   8   -272.1666066 -0.357255E-08  0.196E-04    2.31      43.1  T
     SCC iter.                  ...        0 min,  0.441 sec
     gradient                   ...        0 min,  0.295 sec
 * total energy  :  -269.3081870 Eh     change       -0.1187105E-01 Eh
   gradient norm :     0.0251693 Eh/α   predicted    -0.1281910E-01 (   7.99%)
   displ. norm   :     0.8407639 α      lambda       -0.1113410E-01
   maximum displ.:     0.5691761 α      in ANC's #18, #44, #300, ...

........................................................................
.............................. CYCLE   11 ..............................
........................................................................

 iter      E             dE          RMSdq      gap      omega  full diag
   1   -272.1661803 -0.272166E+03  0.161E-01    2.36       0.0  T
   2   -272.1665530 -0.372708E-03  0.936E-02    2.37       1.0  T
   3   -272.1665556 -0.259908E-05  0.341E-02    2.37       1.0  T
   4   -272.1665846 -0.290061E-04  0.783E-03    2.36       1.1  T
   5   -272.1665886 -0.404989E-05  0.408E-03    2.36       2.1  T
   6   -272.1665890 -0.379041E-06  0.212E-03    2.36       4.0  T
   7   -272.1665892 -0.195282E-06  0.792E-04    2.36      10.7  T
   8   -272.1665892 -0.108785E-07  0.229E-04    2.36      36.9  T
     SCC iter.                  ...        0 min,  0.550 sec
     gradient                   ...        0 min,  0.172 sec
 * total energy  :  -269.3159053 Eh     change       -0.7718349E-02 Eh
   gradient norm :     0.0520727 Eh/α   predicted    -0.9502320E-02 (  23.11%)
   displ. norm   :     0.7534513 α      lambda       -0.1039669E-01
   maximum displ.:     0.5013728 α      in ANC's #18, #44, #10, ...

........................................................................
.............................. CYCLE   12 ..............................
........................................................................

 iter      E             dE          RMSdq      gap      omega  full diag
   1   -272.1552941 -0.272155E+03  0.163E-01    2.40       0.0  T
   2   -272.1561863 -0.892197E-03  0.934E-02    2.39       1.0  T
   3   -272.1562279 -0.415907E-04  0.454E-02    2.39       1.0  T
   4   -272.1562460 -0.181183E-04  0.109E-02    2.39       1.0  T
   5   -272.1562529 -0.692640E-05  0.537E-03    2.39       1.6  T
   6   -272.1562538 -0.896079E-06  0.305E-03    2.39       2.8  T
   7   -272.1562542 -0.406785E-06  0.146E-03    2.39       5.8  T
   8   -272.1562543 -0.527955E-07  0.366E-04    2.39      23.1  T
   9   -272.1562543 -0.535505E-08  0.195E-04    2.39      43.4  T
     SCC iter.                  ...        0 min,  0.502 sec
     gradient                   ...        0 min,  0.132 sec
 * total energy  :  -269.3196857 Eh     change       -0.3780396E-02 Eh
   gradient norm :     0.0817966 Eh/α   predicted    -0.8149395E-02 ( 115.57%)
   displ. norm   :     0.4211841 α      lambda       -0.7780886E-02
   maximum displ.:     0.2822379 α      in ANC's #18, #6, #44, ...

........................................................................
.............................. CYCLE   13 ..............................
........................................................................

 iter      E             dE          RMSdq      gap      omega  full diag
   1   -272.1919402 -0.272192E+03  0.878E-02    2.41       0.0  T
   2   -272.1922852 -0.344996E-03  0.510E-02    2.40       1.0  T
   3   -272.1923034 -0.182702E-04  0.263E-02    2.41       1.0  T
   4   -272.1923071 -0.368811E-05  0.651E-03    2.41       1.3  T
   5   -272.1923095 -0.237332E-05  0.274E-03    2.41       3.1  T
   6   -272.1923098 -0.333371E-06  0.139E-03    2.41       6.1  T
   7   -272.1923099 -0.949065E-07  0.642E-04    2.41      13.2  T
   8   -272.1923099 -0.752681E-08  0.177E-04    2.40      47.7  T
     SCC iter.                  ...        0 min,  0.419 sec
     gradient                   ...        0 min,  0.157 sec
 * total energy  :  -269.3246906 Eh     change       -0.5004892E-02 Eh
   gradient norm :     0.0259813 Eh/α   predicted    -0.4580600E-02 (  -8.48%)
   displ. norm   :     0.6052806 α      lambda       -0.5556054E-02
   maximum displ.:     0.3665278 α      in ANC's #18, #44, #10, ...

........................................................................
.............................. CYCLE   14 ..............................
........................................................................

 iter      E             dE          RMSdq      gap      omega  full diag
   1   -272.2050974 -0.272205E+03  0.147E-01    2.44       0.0  T
   2   -272.2062891 -0.119169E-02  0.828E-02    2.44       1.0  T
   3   -272.2063554 -0.663259E-04  0.452E-02    2.44       1.0  T
   4   -272.2063657 -0.103618E-04  0.119E-02    2.44       1.0  T
   5   -272.2063724 -0.668072E-05  0.514E-03    2.44       1.6  T
   6   -272.2063732 -0.782047E-06  0.283E-03    2.43       3.0  T
   7   -272.2063736 -0.390750E-06  0.150E-03    2.43       5.6  T
   8   -272.2063737 -0.573591E-07  0.425E-04    2.43      19.9  T
   9   -272.2063737 -0.815010E-08  0.195E-04    2.43      43.3  T
     SCC iter.                  ...        0 min,  0.466 sec
     gradient                   ...        0 min,  0.136 sec
 * total energy  :  -269.3215539 Eh     change        0.3136733E-02 Eh
   gradient norm :     0.1126326 Eh/α   predicted    -0.3795795E-02 (-221.01%)
   displ. norm   :     0.2539696 α      lambda       -0.1153145E-01
   maximum displ.:     0.1110457 α      in ANC's #18, #44, #71, ...

........................................................................
.............................. CYCLE   15 ..............................
........................................................................

 iter      E             dE          RMSdq      gap      omega  full diag
   1   -272.2076315 -0.272208E+03  0.971E-02    2.43       0.0  T
   2   -272.2084563 -0.824801E-03  0.523E-02    2.42       1.0  T
   3   -272.2084983 -0.419978E-04  0.303E-02    2.43       1.0  T
   4   -272.2085034 -0.506055E-05  0.994E-03    2.43       1.0  T
   5   -272.2085065 -0.312947E-05  0.388E-03    2.43       2.2  T
   6   -272.2085068 -0.330892E-06  0.210E-03    2.43       4.0  T
   7   -272.2085070 -0.225028E-06  0.123E-03    2.43       6.9  T
   8   -272.2085071 -0.458340E-07  0.257E-04    2.43      32.9  T
   9   -272.2085071 -0.203306E-08  0.142E-04    2.43      59.7  T
     SCC iter.                  ...        0 min,  0.459 sec
     gradient                   ...        0 min,  0.127 sec
 * total energy  :  -269.3277451 Eh     change       -0.6191176E-02 Eh
   gradient norm :     0.0122420 Eh/α   predicted    -0.6137634E-02 (  -0.86%)
   displ. norm   :     0.4575207 α      lambda       -0.1579649E-02
   maximum displ.:     0.2716022 α      in ANC's #18, #44, #8, ...

........................................................................
.............................. CYCLE   16 ..............................
........................................................................

 iter      E             dE          RMSdq      gap      omega  full diag
   1   -272.2065072 -0.272207E+03  0.837E-02    2.45       0.0  T
   2   -272.2066448 -0.137548E-03  0.485E-02    2.45       1.0  T
   3   -272.2066477 -0.293663E-05  0.203E-02    2.45       1.0  T
   4   -272.2066556 -0.791536E-05  0.511E-03    2.45       1.7  T
   5   -272.2066577 -0.208415E-05  0.236E-03    2.45       3.6  T
   6   -272.2066580 -0.261285E-06  0.120E-03    2.45       7.1  T
   7   -272.2066580 -0.448339E-07  0.528E-04    2.45      16.0  T
   8   -272.2066580 -0.517360E-08  0.132E-04    2.45      64.0  T
     SCC iter.                  ...        0 min,  0.446 sec
     gradient                   ...        0 min,  0.130 sec
 * total energy  :  -269.3280488 Eh     change       -0.3037020E-03 Eh
   gradient norm :     0.0383465 Eh/α   predicted    -0.9551576E-03 ( 214.50%)
   displ. norm   :     0.4529891 α      lambda       -0.2569021E-02
   maximum displ.:     0.2374627 α      in ANC's #18, #10, #8, ...

........................................................................
.............................. CYCLE   17 ..............................
........................................................................

 iter      E             dE          RMSdq      gap      omega  full diag
   1   -272.2193172 -0.272219E+03  0.808E-02    2.45       0.0  T
   2   -272.2195085 -0.191291E-03  0.469E-02    2.45       1.0  T
   3   -272.2195161 -0.762378E-05  0.219E-02    2.45       1.0  T
   4   -272.2195212 -0.502126E-05  0.561E-03    2.45       1.5  T
   5   -272.2195238 -0.264101E-05  0.237E-03    2.45       3.6  T
   6   -272.2195241 -0.324107E-06  0.112E-03    2.45       7.6  T
   7   -272.2195242 -0.423562E-07  0.465E-04    2.45      18.2  T
   8   -272.2195242 -0.255216E-08  0.117E-04    2.45      72.2  T
     SCC iter.                  ...        0 min,  0.430 sec
     gradient                   ...        0 min,  0.132 sec
 * total energy  :  -269.3289641 Eh     change       -0.9153033E-03 Eh
   gradient norm :     0.0247238 Eh/α   predicted    -0.1548097E-02 (  69.13%)
   displ. norm   :     0.2088530 α      lambda       -0.1287478E-02
   maximum displ.:     0.0996602 α      in ANC's #10, #49, #8, ...

........................................................................
.............................. CYCLE   18 ..............................
........................................................................

 iter      E             dE          RMSdq      gap      omega  full diag
   1   -272.2287597 -0.272229E+03  0.619E-02    2.45       0.0  T
   2   -272.2290513 -0.291562E-03  0.341E-02    2.44       1.0  T
   3   -272.2290673 -0.160759E-04  0.192E-02    2.44       1.0  T
   4   -272.2290690 -0.163799E-05  0.559E-03    2.44       1.5  T
   5   -272.2290699 -0.917109E-06  0.200E-03    2.44       4.2  T
   6   -272.2290700 -0.623909E-07  0.889E-04    2.44       9.5  T
   7   -272.2290700 -0.466031E-07  0.473E-04    2.44      17.9  T
     SCC iter.                  ...        0 min,  0.352 sec
     gradient                   ...        0 min,  0.136 sec
 * total energy  :  -269.3279560 Eh     change        0.1008115E-02 Eh
   gradient norm :     0.0606977 Eh/α   predicted    -0.6718197E-03 (-166.64%)
   displ. norm   :     0.1456518 α      lambda       -0.3346938E-02
   maximum displ.:     0.0401075 α      in ANC's #49, #15, #18, ...

........................................................................
.............................. CYCLE   19 ..............................
........................................................................

 iter      E             dE          RMSdq      gap      omega  full diag
   1   -272.2253281 -0.272225E+03  0.551E-02    2.44       0.0  T
   2   -272.2255745 -0.246439E-03  0.299E-02    2.44       1.0  T
   3   -272.2255878 -0.133007E-04  0.170E-02    2.44       1.0  T
   4   -272.2255892 -0.136730E-05  0.525E-03    2.44       1.6  T
   5   -272.2255899 -0.720928E-06  0.179E-03    2.44       4.7  T
   6   -272.2255899 -0.553651E-07  0.738E-04    2.44      11.5  T
   7   -272.2255900 -0.241734E-07  0.435E-04    2.44      19.4  T
     SCC iter.                  ...        0 min,  0.381 sec
     gradient                   ...        0 min,  0.120 sec
 * total energy  :  -269.3294206 Eh     change       -0.1464660E-02 Eh
   gradient norm :     0.0220025 Eh/α   predicted    -0.1708978E-02 (  16.68%)
   displ. norm   :     0.2217150 α      lambda       -0.1825371E-02
   maximum displ.:     0.0659931 α      in ANC's #32, #49, #10, ...

........................................................................
.............................. CYCLE   20 ..............................
........................................................................

 iter      E             dE          RMSdq      gap      omega  full diag
   1   -272.2033277 -0.272203E+03  0.815E-02    2.45       0.0  T
   2   -272.2038660 -0.538313E-03  0.457E-02    2.46       1.0  T
   3   -272.2038981 -0.321698E-04  0.260E-02    2.46       1.0  T
   4   -272.2039007 -0.257029E-05  0.739E-03    2.46       1.1  T
   5   -272.2039028 -0.203836E-05  0.277E-03    2.46       3.1  T
   6   -272.2039029 -0.111468E-06  0.120E-03    2.46       7.0  T
   7   -272.2039029 -0.556715E-07  0.696E-04    2.46      12.1  T
   8   -272.2039029 -0.130150E-07  0.213E-04    2.46      39.7  T
     SCC iter.                  ...        0 min,  0.363 sec
     gradient                   ...        0 min,  0.138 sec
 * total energy  :  -269.3275112 Eh     change        0.1909435E-02 Eh
   gradient norm :     0.0695179 Eh/α   predicted    -0.9575514E-03 (-150.15%)
   displ. norm   :     0.1488982 α      lambda       -0.4655981E-02
   maximum displ.:     0.0564120 α      in ANC's #49, #32, #10, ...
 * RMSD in coord.:     0.8377217 α      energy gain  -0.2636073E+00 Eh

generating ANC from model Hessian ...
Using Lindh-Hessian (1995)
 Shifting diagonal of input Hessian by    1.0073811397161452E-002
 Lowest  eigenvalues of input Hessian
    0.010000    0.000000    0.000000    0.000000    0.000000    0.000000
    0.000000    0.010320    0.010372    0.010515    0.010548    0.010583
    0.010727    0.010838    0.011066    0.011213    0.013105    0.013131
 Highest eigenvalues
    2.524471    2.529794    2.532091    2.536928    2.539413    2.550057


........................................................................
.............................. CYCLE   21 ..............................
........................................................................

 iter      E             dE          RMSdq      gap      omega  full diag
   1   -272.2138522 -0.272214E+03  0.627E-02    2.45       0.0  T
   2   -272.2141890 -0.336830E-03  0.347E-02    2.45       1.0  T
   3   -272.2142069 -0.178626E-04  0.198E-02    2.45       1.0  T
   4   -272.2142083 -0.144404E-05  0.579E-03    2.45       1.5  T
   5   -272.2142095 -0.116436E-05  0.216E-03    2.45       3.9  T
   6   -272.2142095 -0.603234E-07  0.110E-03    2.45       7.7  T
   7   -272.2142096 -0.850613E-07  0.517E-04    2.45      16.3  T
   8   -272.2142096 -0.454327E-08  0.147E-04    2.45      57.6  T
     SCC iter.                  ...        0 min,  0.373 sec
     gradient                   ...        0 min,  0.118 sec
 * total energy  :  -269.3298144 Eh     change       -0.2303179E-02 Eh
   gradient norm :     0.0193242 Eh/α   predicted     0.0000000E+00 (-100.00%)
   displ. norm   :     0.1381564 α      lambda       -0.6291337E-03
   maximum displ.:     0.0661429 α      in ANC's #9, #6, #10, ...

........................................................................
.............................. CYCLE   22 ..............................
........................................................................

 iter      E             dE          RMSdq      gap      omega  full diag
   1   -272.2188253 -0.272219E+03  0.261E-02    2.45       0.0  T
   2   -272.2188390 -0.137059E-04  0.153E-02    2.45       1.0  T
   3   -272.2188394 -0.372572E-06  0.615E-03    2.45       1.4  T
   4   -272.2188400 -0.646574E-06  0.127E-03    2.45       6.7  T
   5   -272.2188401 -0.111393E-06  0.644E-04    2.45      13.1  T
   6   -272.2188402 -0.168826E-07  0.350E-04    2.45      24.1  T
     SCC iter.                  ...        0 min,  0.327 sec
     gradient                   ...        0 min,  0.130 sec
 * total energy  :  -269.3302908 Eh     change       -0.4764127E-03 Eh
   gradient norm :     0.0051082 Eh/α   predicted    -0.3206030E-03 ( -32.70%)
   displ. norm   :     0.3048489 α      lambda       -0.6395722E-03
   maximum displ.:     0.1509931 α      in ANC's #9, #6, #5, ...

   *** GEOMETRY OPTIMIZATION CONVERGED AFTER 22 ITERATIONS ***

------------------------------------------------------------------------
 total energy gain   :        -0.2663868 Eh     -167.1603 kcal/mol
 total RMSD          :         0.8379869 a0        0.4434 Å
 total power (kW/mol):       -31.7908439 (step)  -51.9302 (real)
------------------------------------------------------------------------

 ANCopt (total)                0 d,  0 h,  0 min, 13.468 sec
 optimizer setup                ...        0 min,  0.000 sec (  0.001%)
 model hessian                  ...        0 min,  0.226 sec (  1.678%)
 ANC generation                 ...        0 min,  0.056 sec (  0.419%)
 coordinate transformation      ...        0 min,  0.006 sec (  0.047%)
 single point calculation       ...        0 min, 13.116 sec ( 97.385%)
 optimization log               ...        0 min,  0.012 sec (  0.092%)
 hessian update                 ...        0 min,  0.027 sec (  0.201%)
 rational function              ...        0 min,  0.019 sec (  0.143%)

================
 final structure:
================
 xtb: 6.6.1 (8d0f1dd)
          11112314063D

140161  0     0  0            999 V2000
    1.4330   -0.5781   -5.1253 N   0  0  0  0  0  0  0  0  0  0  0  0
    1.2390    0.7103   -5.7443 C   0  0  0  0  0  0  0  0  0  0  0  0
   -0.3041    0.8266   -5.8568 C   0  0  0  0  0  0  0  0  0  0  0  0
   -0.7744   -0.4138   -5.2902 N   0  0  0  0  0  0  0  0  0  0  0  0
    0.2508   -1.2341   -4.8942 C   0  0  0  0  0  0  0  0  0  0  0  0
    1.5990    1.8349   -4.9177 N   0  0  0  0  0  0  0  0  0  0  0  0
    0.5163    2.5994   -4.5755 C   0  0  0  0  0  0  0  0  0  0  0  0
   -0.6056    2.0019   -5.0778 N   0  0  0  0  0  0  0  0  0  0  0  0
    0.1354   -2.3675   -4.4809 O   0  0  0  0  0  0  0  0  0  0  0  0
    0.5566    3.6615   -3.9926 O   0  0  0  0  0  0  0  0  0  0  0  0
   -3.0344   -0.4310   -4.4400 N   0  0  0  0  0  0  0  0  0  0  0  0
   -3.6693    0.8637   -4.4752 C   0  0  0  0  0  0  0  0  0  0  0  0
   -4.7055    0.7815   -3.3252 C   0  0  0  0  0  0  0  0  0  0  0  0
   -4.5159   -0.5490   -2.7985 N   0  0  0  0  0  0  0  0  0  0  0  0
   -3.5222   -1.2371   -3.4453 C   0  0  0  0  0  0  0  0  0  0  0  0
   -2.8078    1.9480   -4.0764 N   0  0  0  0  0  0  0  0  0  0  0  0
   -3.1523    2.4683   -2.8544 C   0  0  0  0  0  0  0  0  0  0  0  0
   -4.2899    1.8325   -2.4313 N   0  0  0  0  0  0  0  0  0  0  0  0
   -3.1917   -2.3840   -3.2295 O   0  0  0  0  0  0  0  0  0  0  0  0
   -2.5883    3.3774   -2.2841 O   0  0  0  0  0  0  0  0  0  0  0  0
    5.0983   -1.5499    0.2302 N   0  0  0  0  0  0  0  0  0  0  0  0
    5.7214   -0.4411    0.9107 C   0  0  0  0  0  0  0  0  0  0  0  0
    5.2661   -0.6235    2.3818 C   0  0  0  0  0  0  0  0  0  0  0  0
    4.4426   -1.8080    2.3311 N   0  0  0  0  0  0  0  0  0  0  0  0
    4.3412   -2.3277    1.0670 C   0  0  0  0  0  0  0  0  0  0  0  0
    5.1849    0.8481    0.5530 N   0  0  0  0  0  0  0  0  0  0  0  0
    4.4714    1.4230    1.5716 C   0  0  0  0  0  0  0  0  0  0  0  0
    4.5419    0.5910    2.6571 N   0  0  0  0  0  0  0  0  0  0  0  0
    3.7544   -3.3427    0.7589 O   0  0  0  0  0  0  0  0  0  0  0  0
    3.9429    2.5132    1.5416 O   0  0  0  0  0  0  0  0  0  0  0  0
   -1.6809   -1.8245    4.7466 N   0  0  0  0  0  0  0  0  0  0  0  0
   -2.2686   -0.6703    5.3850 C   0  0  0  0  0  0  0  0  0  0  0  0
   -3.6057   -0.4800    4.6191 C   0  0  0  0  0  0  0  0  0  0  0  0
   -3.5894   -1.5505    3.6500 N   0  0  0  0  0  0  0  0  0  0  0  0
   -2.4642   -2.3289    3.7406 C   0  0  0  0  0  0  0  0  0  0  0  0
   -1.5680    0.5639    5.1387 N   0  0  0  0  0  0  0  0  0  0  0  0
   -2.2638    1.4073    4.3188 C   0  0  0  0  0  0  0  0  0  0  0  0
   -3.4760    0.8356    4.0477 N   0  0  0  0  0  0  0  0  0  0  0  0
   -2.2390   -3.3322    3.0974 O   0  0  0  0  0  0  0  0  0  0  0  0
   -1.9027    2.5058    3.9583 O   0  0  0  0  0  0  0  0  0  0  0  0
   -5.2339   -0.8338   -0.5038 N   0  0  0  0  0  0  0  0  0  0  0  0
   -5.7911    0.3504    0.1029 C   0  0  0  0  0  0  0  0  0  0  0  0
   -5.5914    0.1024    1.6205 C   0  0  0  0  0  0  0  0  0  0  0  0
   -4.9228   -1.1767    1.6641 N   0  0  0  0  0  0  0  0  0  0  0  0
   -4.7124   -1.7057    0.4169 C   0  0  0  0  0  0  0  0  0  0  0  0
   -5.0302    1.5512   -0.1387 N   0  0  0  0  0  0  0  0  0  0  0  0
   -4.4034    2.0151    0.9871 C   0  0  0  0  0  0  0  0  0  0  0  0
   -4.7670    1.2079    2.0337 N   0  0  0  0  0  0  0  0  0  0  0  0
   -4.2234   -2.7891    0.1753 O   0  0  0  0  0  0  0  0  0  0  0  0
   -3.7131    3.0085    1.0598 O   0  0  0  0  0  0  0  0  0  0  0  0
    3.9810   -2.5153    3.4948 C   0  0  0  0  0  0  0  0  0  0  0  0
   -1.9034    2.6119   -4.9780 C   0  0  0  0  0  0  0  0  0  0  0  0
    4.1355    1.0022    3.9727 C   0  0  0  0  0  0  0  0  0  0  0  0
   -2.1200   -0.9002   -5.4426 C   0  0  0  0  0  0  0  0  0  0  0  0
    3.5230   -0.8959   -3.9592 N   0  0  0  0  0  0  0  0  0  0  0  0
    4.3539    0.2827   -3.9207 C   0  0  0  0  0  0  0  0  0  0  0  0
    5.2084    0.0740   -2.6438 C   0  0  0  0  0  0  0  0  0  0  0  0
    4.7469   -1.1968   -2.1378 N   0  0  0  0  0  0  0  0  0  0  0  0
    3.7547   -1.7444   -2.9086 C   0  0  0  0  0  0  0  0  0  0  0  0
    3.6307    1.4985   -3.6480 N   0  0  0  0  0  0  0  0  0  0  0  0
    3.9047    2.0013   -2.4008 C   0  0  0  0  0  0  0  0  0  0  0  0
    4.8543    1.2037   -1.8222 N   0  0  0  0  0  0  0  0  0  0  0  0
    3.2323   -2.8251   -2.7361 O   0  0  0  0  0  0  0  0  0  0  0  0
    3.4367    3.0137   -1.9290 O   0  0  0  0  0  0  0  0  0  0  0  0
    2.7009   -1.2564   -5.0803 C   0  0  0  0  0  0  0  0  0  0  0  0
    2.9485    2.2606   -4.6605 C   0  0  0  0  0  0  0  0  0  0  0  0
    5.5612    1.5772   -0.6274 C   0  0  0  0  0  0  0  0  0  0  0  0
    5.4220   -1.9459   -1.1128 C   0  0  0  0  0  0  0  0  0  0  0  0
   -5.4230   -1.1882   -1.8841 C   0  0  0  0  0  0  0  0  0  0  0  0
   -5.1018    2.3214   -1.3501 C   0  0  0  0  0  0  0  0  0  0  0  0
   -4.7329   -1.9395    2.8685 C   0  0  0  0  0  0  0  0  0  0  0  0
   -4.5379    1.5626    3.4074 C   0  0  0  0  0  0  0  0  0  0  0  0
    0.8451    0.4055    5.2500 N   0  0  0  0  0  0  0  0  0  0  0  0
    1.3572   -0.8910    5.6089 C   0  0  0  0  0  0  0  0  0  0  0  0
    2.7986   -0.8784    5.0379 C   0  0  0  0  0  0  0  0  0  0  0  0
    2.9024    0.4242    4.4312 N   0  0  0  0  0  0  0  0  0  0  0  0
    1.7394    1.1426    4.5172 C   0  0  0  0  0  0  0  0  0  0  0  0
    0.7294   -1.9851    4.9069 N   0  0  0  0  0  0  0  0  0  0  0  0
    1.5776   -2.6027    4.0244 C   0  0  0  0  0  0  0  0  0  0  0  0
    2.7931   -1.9734    4.0975 N   0  0  0  0  0  0  0  0  0  0  0  0
    1.5582    2.2624    4.0927 O   0  0  0  0  0  0  0  0  0  0  0  0
    1.3216   -3.5831    3.3577 O   0  0  0  0  0  0  0  0  0  0  0  0
   -0.3574    0.9697    5.7981 C   0  0  0  0  0  0  0  0  0  0  0  0
   -0.5472   -2.5388    5.2699 C   0  0  0  0  0  0  0  0  0  0  0  0
    1.7824    0.7546   -6.6986 H   0  0  0  0  0  0  0  0  0  0  0  0
   -0.6912    0.9424   -6.8788 H   0  0  0  0  0  0  0  0  0  0  0  0
   -4.0858    1.0530   -5.4734 H   0  0  0  0  0  0  0  0  0  0  0  0
   -5.7531    0.9235   -3.6223 H   0  0  0  0  0  0  0  0  0  0  0  0
    6.8075   -0.4609    0.7479 H   0  0  0  0  0  0  0  0  0  0  0  0
    6.0750   -0.7586    3.1124 H   0  0  0  0  0  0  0  0  0  0  0  0
   -2.3647   -0.8452    6.4647 H   0  0  0  0  0  0  0  0  0  0  0  0
   -4.5134   -0.5420    5.2338 H   0  0  0  0  0  0  0  0  0  0  0  0
   -6.8320    0.4854   -0.2198 H   0  0  0  0  0  0  0  0  0  0  0  0
   -6.5120    0.0682    2.2182 H   0  0  0  0  0  0  0  0  0  0  0  0
    4.7827   -2.5319    4.2422 H   0  0  0  0  0  0  0  0  0  0  0  0
    3.7287   -3.5294    3.1635 H   0  0  0  0  0  0  0  0  0  0  0  0
   -2.3638    2.6521   -5.9714 H   0  0  0  0  0  0  0  0  0  0  0  0
   -1.7343    3.6192   -4.5796 H   0  0  0  0  0  0  0  0  0  0  0  0
    3.9745    2.0852    3.9248 H   0  0  0  0  0  0  0  0  0  0  0  0
    4.9302    0.7495    4.6839 H   0  0  0  0  0  0  0  0  0  0  0  0
   -2.0762   -1.9907   -5.3387 H   0  0  0  0  0  0  0  0  0  0  0  0
   -2.4947   -0.6122   -6.4316 H   0  0  0  0  0  0  0  0  0  0  0  0
    4.9204    0.3764   -4.8567 H   0  0  0  0  0  0  0  0  0  0  0  0
    6.2946    0.0436   -2.8022 H   0  0  0  0  0  0  0  0  0  0  0  0
    3.2498   -1.0519   -6.0069 H   0  0  0  0  0  0  0  0  0  0  0  0
    2.4837   -2.3261   -4.9777 H   0  0  0  0  0  0  0  0  0  0  0  0
    2.8791    3.2911   -4.2934 H   0  0  0  0  0  0  0  0  0  0  0  0
    3.5280    2.2129   -5.5890 H   0  0  0  0  0  0  0  0  0  0  0  0
    5.3173    2.6281   -0.4340 H   0  0  0  0  0  0  0  0  0  0  0  0
    6.6357    1.4439   -0.7980 H   0  0  0  0  0  0  0  0  0  0  0  0
    6.5048   -1.8558   -1.2595 H   0  0  0  0  0  0  0  0  0  0  0  0
    5.0942   -2.9865   -1.2189 H   0  0  0  0  0  0  0  0  0  0  0  0
   -5.2338   -2.2653   -1.9599 H   0  0  0  0  0  0  0  0  0  0  0  0
   -6.4522   -0.9469   -2.1750 H   0  0  0  0  0  0  0  0  0  0  0  0
   -6.1454    2.3563   -1.6848 H   0  0  0  0  0  0  0  0  0  0  0  0
   -4.7308    3.3231   -1.1051 H   0  0  0  0  0  0  0  0  0  0  0  0
   -4.5613   -2.9766    2.5571 H   0  0  0  0  0  0  0  0  0  0  0  0
   -5.6330   -1.8571    3.4888 H   0  0  0  0  0  0  0  0  0  0  0  0
   -5.4638    1.4105    3.9723 H   0  0  0  0  0  0  0  0  0  0  0  0
   -4.2384    2.6168    3.4122 H   0  0  0  0  0  0  0  0  0  0  0  0
    1.2810   -1.0452    6.6936 H   0  0  0  0  0  0  0  0  0  0  0  0
    3.5998   -1.0204    5.7755 H   0  0  0  0  0  0  0  0  0  0  0  0
   -0.4233    0.7055    6.8590 H   0  0  0  0  0  0  0  0  0  0  0  0
   -0.2807    2.0546    5.6622 H   0  0  0  0  0  0  0  0  0  0  0  0
   -0.5846   -3.5458    4.8383 H   0  0  0  0  0  0  0  0  0  0  0  0
   -0.6224   -2.5745    6.3630 H   0  0  0  0  0  0  0  0  0  0  0  0
   -0.1114    2.4528   -0.0478 C   0  0  0  0  0  0  0  0  0  0  0  0
   -0.6614    2.8894    1.1471 C   0  0  0  0  0  0  0  0  0  0  0  0
   -0.6945    4.1730    1.6743 C   0  0  0  0  0  0  0  0  0  0  0  0
   -0.2366    5.3535    1.1069 C   0  0  0  0  0  0  0  0  0  0  0  0
    0.3624    5.5404   -0.1335 C   0  0  0  0  0  0  0  0  0  0  0  0
    0.7045    4.5836   -1.0784 C   0  0  0  0  0  0  0  0  0  0  0  0
    0.5167    3.2098   -1.0244 C   0  0  0  0  0  0  0  0  0  0  0  0
   -0.1771    1.3884   -0.2414 H   0  0  0  0  0  0  0  0  0  0  0  0
   -1.1139    2.1346    1.7746 H   0  0  0  0  0  0  0  0  0  0  0  0
   -1.1497    4.2373    2.6539 H   0  0  0  0  0  0  0  0  0  0  0  0
   -0.3763    6.2449    1.7053 H   0  0  0  0  0  0  0  0  0  0  0  0
    0.6081    6.5628   -0.3916 H   0  0  0  0  0  0  0  0  0  0  0  0
    1.1800    4.9345   -1.9848 H   0  0  0  0  0  0  0  0  0  0  0  0
    0.9032    2.6671   -1.8742 H   0  0  0  0  0  0  0  0  0  0  0  0
  1  5  1  0  0  0  0
  1 65  1  0  0  0  0
  2  1  1  0  0  0  0
  2  6  1  0  0  0  0
  2  3  1  0  0  0  0
  2 85  1  0  0  0  0
  3  4  1  0  0  0  0
  3  8  1  0  0  0  0
  3 86  1  0  0  0  0
  4  5  1  0  0  0  0
  5  9  2  0  0  0  0
  6 66  1  0  0  0  0
  6  7  1  0  0  0  0
  7 10  2  0  0  0  0
  8 52  1  0  0  0  0
  8  7  1  0  0  0  0
 11 15  1  0  0  0  0
 12 11  1  0  0  0  0
 12 16  1  0  0  0  0
 12 13  1  0  0  0  0
 12 87  1  0  0  0  0
 13 14  1  0  0  0  0
 13 18  1  0  0  0  0
 13 88  1  0  0  0  0
 14 69  1  0  0  0  0
 15 19  2  0  0  0  0
 15 14  1  0  0  0  0
 16 17  1  0  0  0  0
 17 18  1  0  0  0  0
 17 20  2  0  0  0  0
 18 70  1  0  0  0  0
 21 25  1  0  0  0  0
 22 21  1  0  0  0  0
 22 23  1  0  0  0  0
 22 89  1  0  0  0  0
 23 24  1  0  0  0  0
 23 28  1  0  0  0  0
 23 90  1  0  0  0  0
 24 51  1  0  0  0  0
 25 24  1  0  0  0  0
 26 22  1  0  0  0  0
 26 27  1  0  0  0  0
 27 28  1  0  0  0  0
 28 53  1  0  0  0  0
 29 25  2  0  0  0  0
 30 27  2  0  0  0  0
 31 84  1  0  0  0  0
 32 31  1  0  0  0  0
 32 33  1  0  0  0  0
 32 91  1  0  0  0  0
 33 34  1  0  0  0  0
 33 92  1  0  0  0  0
 34 35  1  0  0  0  0
 35 31  1  0  0  0  0
 36 32  1  0  0  0  0
 36 83  1  0  0  0  0
 37 36  1  0  0  0  0
 38 37  1  0  0  0  0
 38 33  1  0  0  0  0
 39 35  2  0  0  0  0
 40 37  2  0  0  0  0
 41 45  1  0  0  0  0
 42 41  1  0  0  0  0
 42 43  1  0  0  0  0
 42 93  1  0  0  0  0
 43 44  1  0  0  0  0
 43 48  1  0  0  0  0
 43 94  1  0  0  0  0
 44 71  1  0  0  0  0
 45 44  1  0  0  0  0
 46 42  1  0  0  0  0
 46 47  1  0  0  0  0
 47 50  2  0  0  0  0
 47 48  1  0  0  0  0
 48 72  1  0  0  0  0
 49 45  2  0  0  0  0
 51 80  1  0  0  0  0
 51 95  1  0  0  0  0
 51 96  1  0  0  0  0
 52 16  1  0  0  0  0
 52 97  1  0  0  0  0
 52 98  1  0  0  0  0
 53 76  1  0  0  0  0
 53 99  1  0  0  0  0
 53100  1  0  0  0  0
 54  4  1  0  0  0  0
 54 11  1  0  0  0  0
 54101  1  0  0  0  0
 54102  1  0  0  0  0
 55 59  1  0  0  0  0
 56 55  1  0  0  0  0
 56 60  1  0  0  0  0
 56 57  1  0  0  0  0
 56103  1  0  0  0  0
 57 58  1  0  0  0  0
 57 62  1  0  0  0  0
 57104  1  0  0  0  0
 58 68  1  0  0  0  0
 59 63  2  0  0  0  0
 59 58  1  0  0  0  0
 60 61  1  0  0  0  0
 61 64  2  0  0  0  0
 61 62  1  0  0  0  0
 62 67  1  0  0  0  0
 65 55  1  0  0  0  0
 65105  1  0  0  0  0
 65106  1  0  0  0  0
 66 60  1  0  0  0  0
 66107  1  0  0  0  0
 66108  1  0  0  0  0
 67 26  1  0  0  0  0
 67109  1  0  0  0  0
 67110  1  0  0  0  0
 68 21  1  0  0  0  0
 68111  1  0  0  0  0
 68112  1  0  0  0  0
 69 41  1  0  0  0  0
 69113  1  0  0  0  0
 69114  1  0  0  0  0
 70 46  1  0  0  0  0
 70115  1  0  0  0  0
 70116  1  0  0  0  0
 71 34  1  0  0  0  0
 71117  1  0  0  0  0
 71118  1  0  0  0  0
 72 38  1  0  0  0  0
 72119  1  0  0  0  0
 72120  1  0  0  0  0
 73 74  1  0  0  0  0
 73 83  1  0  0  0  0
 74 78  1  0  0  0  0
 74 75  1  0  0  0  0
 74121  1  0  0  0  0
 75 80  1  0  0  0  0
 75122  1  0  0  0  0
 76 77  1  0  0  0  0
 76 75  1  0  0  0  0
 77 73  1  0  0  0  0
 78 84  1  0  0  0  0
 79 78  1  0  0  0  0
 80 79  1  0  0  0  0
 81 77  2  0  0  0  0
 82 79  2  0  0  0  0
 83123  1  0  0  0  0
 83124  1  0  0  0  0
 84125  1  0  0  0  0
 84126  1  0  0  0  0
127128  2  0  0  0  0
127134  1  0  0  0  0
128129  1  0  0  0  0
128135  1  0  0  0  0
129130  2  0  0  0  0
129136  1  0  0  0  0
130131  1  0  0  0  0
130137  1  0  0  0  0
131132  2  0  0  0  0
131138  1  0  0  0  0
132133  1  0  0  0  0
132139  1  0  0  0  0
133127  1  0  0  0  0
133140  1  0  0  0  0
M  CHG  1 131   1
M  END
$$$$

 Bond Distances (Angstroems)
 ---------------------------
N1-C2=1.4425         N1-C5=1.3716         N1-C65=1.4386        C2-N1=1.4425         C2-C3=1.5516         C2-N6=1.4414         
C2-H85=1.0989        C3-C2=1.5516         C3-N4=1.4425         C3-N8=1.4419         C3-H86=1.0990        N4-C3=1.4425         
N4-C5=1.3714         N4-C54=1.4389        C5-N1=1.3716         C5-N4=1.3714         C5-O9=1.2119         N6-C2=1.4414         
N6-C7=1.3688         N6-C66=1.4382        C7-N6=1.3688         C7-N8=1.3668         C7-O10=1.2123        N8-C3=1.4419         
N8-C7=1.3668         N8-C52=1.4375        O9-C5=1.2119         O10-C7=1.2123        N11-C12=1.4424       N11-C15=1.3701       
N11-C54=1.4358       C12-N11=1.4424       C12-C13=1.5501       C12-N16=1.4412       C12-H87=1.0980       C13-C12=1.5501       
C13-N14=1.4435       C13-N18=1.4410       C13-H88=1.0981       N14-C13=1.4435       N14-C15=1.3709       N14-C69=1.4378       
C15-N11=1.3701       C15-N14=1.3709       C15-O19=1.2128       N16-C12=1.4412       N16-C17=1.3721       N16-C52=1.4393       
C17-N16=1.3721       C17-N18=1.3702       C17-O20=1.2123       N18-C13=1.4410       N18-C17=1.3702       N18-C70=1.4378       
O19-C15=1.2128       O20-C17=1.2123       N21-C22=1.4425       N21-C25=1.3706       N21-C68=1.4371       C22-N21=1.4425       
C22-C23=1.5507       C22-N26=1.4414       C22-H89=1.0984       C23-C22=1.5507       C23-N24=1.4436       C23-N28=1.4406       
C23-H90=1.0984       N24-C23=1.4436       N24-C25=1.3705       N24-C51=1.4379       C25-N21=1.3706       C25-N24=1.3705       
C25-O29=1.2122       N26-C22=1.4414       N26-C27=1.3701       N26-C67=1.4375       C27-N26=1.3701       C27-N28=1.3695       
C27-O30=1.2119       N28-C23=1.4406       N28-C27=1.3695       N28-C53=1.4370       O29-C25=1.2122       O30-C27=1.2119       
N31-C32=1.4440       N31-C35=1.3712       N31-C84=1.4385       C32-N31=1.4440       C32-C33=1.5526       C32-N36=1.4404       
C32-H91=1.0980       C33-C32=1.5526       C33-N34=1.4441       C33-N38=1.4402       C33-H92=1.0980       N34-C33=1.4441       
N34-C35=1.3712       N34-C71=1.4386       C35-N31=1.3712       C35-N34=1.3712       C35-O39=1.2129       N36-C32=1.4404       
N36-C37=1.3666       N36-C83=1.4370       C37-N36=1.3666       C37-N38=1.3673       C37-O40=1.2113       N38-C33=1.4402       
N38-C37=1.3673       N38-C72=1.4374       O39-C35=1.2129       O40-C37=1.2113       N41-C42=1.4425       N41-C45=1.3711       
N41-C69=1.4376       C42-N41=1.4425       C42-C43=1.5506       C42-N46=1.4419       C42-H93=1.0982       C43-C42=1.5506       
C43-N44=1.4440       C43-N48=1.4395       C43-H94=1.0981       N44-C43=1.4440       N44-C45=1.3711       N44-C71=1.4382       
C45-N41=1.3711       C45-N44=1.3711       C45-O49=1.2129       N46-C42=1.4419       N46-C47=1.3696       N46-C70=1.4373       
C47-N46=1.3696       C47-N48=1.3708       C47-O50=1.2118       N48-C43=1.4395       N48-C47=1.3708       N48-C72=1.4372       
O49-C45=1.2129       O50-C47=1.2118       C51-N24=1.4379       C51-N80=1.4380       C51-H95=1.0963       C51-H96=1.0962       
C52-N8=1.4375        C52-N16=1.4393       C52-H97=1.0957       C52-H98=1.0963       C53-N28=1.4370       C53-N76=1.4370       
C53-H99=1.0960       C53-H100=1.0960      C54-N4=1.4389        C54-N11=1.4358       C54-H101=1.0963      C54-H102=1.0961      
N55-C56=1.4426       N55-C59=1.3702       N55-C65=1.4362       C56-N55=1.4426       C56-C57=1.5506       C56-N60=1.4407       
C56-H103=1.0981      C57-C56=1.5506       C57-N58=1.4435       C57-N62=1.4410       C57-H104=1.0981      N58-C57=1.4435       
N58-C59=1.3706       N58-C68=1.4378       C59-N55=1.3702       C59-N58=1.3706       C59-O63=1.2127       N60-C56=1.4407       
N60-C61=1.3724       N60-C66=1.4392       C61-N60=1.3724       C61-N62=1.3685       C61-O64=1.2110       N62-C57=1.4410       
N62-C61=1.3685       N62-C67=1.4376       O63-C59=1.2127       O64-C61=1.2110       C65-N1=1.4386        C65-N55=1.4362       
C65-H105=1.0963      C65-H106=1.0963      C66-N6=1.4382        C66-N60=1.4392       C66-H107=1.0962      C66-H108=1.0956      
C67-N26=1.4375       C67-N62=1.4376       C67-H109=1.0961      C67-H110=1.0962      C68-N21=1.4371       C68-N58=1.4378       
C68-H111=1.0963      C68-H112=1.0962      C69-N14=1.4378       C69-N41=1.4376       C69-H113=1.0962      C69-H114=1.0964      
C70-N18=1.4378       C70-N46=1.4373       C70-H115=1.0965      C70-H116=1.0960      C71-N34=1.4386       C71-N44=1.4382       
C71-H117=1.0963      C71-H118=1.0963      C72-N38=1.4374       C72-N48=1.4372       C72-H119=1.0952      C72-H120=1.0959      
N73-C74=1.4395       N73-C77=1.3712       N73-C83=1.4369       C74-N73=1.4395       C74-C75=1.5504       C74-N78=1.4436       
C74-H121=1.0982      C75-C74=1.5504       C75-N76=1.4408       C75-N80=1.4434       C75-H122=1.0982      N76-C53=1.4370       
N76-C75=1.4408       N76-C77=1.3696       C77-N73=1.3712       C77-N76=1.3696       C77-O81=1.2112       N78-C74=1.4436       
N78-C79=1.3710       N78-C84=1.4381       C79-N78=1.3710       C79-N80=1.3707       C79-O82=1.2129       N80-C51=1.4380       
N80-C75=1.4434       N80-C79=1.3707       O81-C77=1.2112       O82-C79=1.2129       C83-N36=1.4370       C83-N73=1.4369       
C83-H123=1.0953      C83-H124=1.0961      C84-N31=1.4385       C84-N78=1.4381       C84-H125=1.0963      C84-H126=1.0963      
H85-C2=1.0989        H86-C3=1.0990        H87-C12=1.0980       H88-C13=1.0981       H89-C22=1.0984       H90-C23=1.0984       
H91-C32=1.0980       H92-C33=1.0980       H93-C42=1.0982       H94-C43=1.0981       H95-C51=1.0963       H96-C51=1.0962       
H97-C52=1.0957       H98-C52=1.0963       H99-C53=1.0960       H100-C53=1.0960      H101-C54=1.0963      H102-C54=1.0961      
H103-C56=1.0981      H104-C57=1.0981      H105-C65=1.0963      H106-C65=1.0963      H107-C66=1.0962      H108-C66=1.0956      
H109-C67=1.0961      H110-C67=1.0962      H111-C68=1.0963      H112-C68=1.0962      H113-C69=1.0962      H114-C69=1.0964      
H115-C70=1.0965      H116-C70=1.0960      H117-C71=1.0963      H118-C71=1.0963      H119-C72=1.0952      H120-C72=1.0959      
H121-C74=1.0982      H122-C75=1.0982      H123-C83=1.0953      H124-C83=1.0961      H125-C84=1.0963      H126-C84=1.0963      
C127-C128=1.3860     C127-C133=1.3862     C127-H134=1.0838     C128-C127=1.3860     C128-C129=1.3880     C128-H135=1.0808     
C129-C128=1.3880     C129-C130=1.3875     C129-H136=1.0821     C130-C129=1.3875     C130-C131=1.3901     C130-H137=1.0827     
C131-C130=1.3901     C131-C132=1.3876     C131-H138=1.0827     C132-C131=1.3876     C132-C133=1.3876     C132-H139=1.0820     
C133-C127=1.3862     C133-C132=1.3876     C133-H140=1.0798     H134-C127=1.0838     H135-C128=1.0808     H136-C129=1.0821     
H137-C130=1.0827     H138-C131=1.0827     H139-C132=1.0820     H140-C133=1.0798     
 C  H  Rav=1.0947 sigma=0.0053  Rmin=1.0798  Rmax=1.0990    49
 C  C  Rav=1.4693 sigma=0.0817  Rmin=1.3860  Rmax=1.5526    14
 N  C  Rav=1.4166 sigma=0.0329  Rmin=1.3666  Rmax=1.4441    84
 O  C  Rav=1.2121 sigma=0.0006  Rmin=1.2110  Rmax=1.2129    14

 selected bond angles (degree)
 --------------------
C5-N1-C2=112.56                C65-N1-C2=123.58               C65-N1-C5=121.92               C3-C2-N1=103.40                
N6-C2-N1=114.66                N6-C2-C3=103.39                H85-C2-N1=110.01               H85-C2-C3=115.20               
H85-C2-N6=110.06               N4-C3-C2=103.37                N8-C3-C2=103.29                N8-C3-N4=114.87                
H86-C3-C2=115.19               H86-C3-N4=109.94               H86-C3-N8=110.05               C5-N4-C3=112.59                
C54-N4-C3=123.64               C54-N4-C5=121.84               N4-C5-N1=108.03                O9-C5-N1=125.93                
O9-C5-N4=125.92                C7-N6-C2=112.43                C66-N6-C2=124.60               C66-N6-C7=122.16               
N8-C7-N6=108.26                O10-C7-N6=125.68               O10-C7-N8=125.95               C7-N8-C3=112.53                
C52-N8-C3=124.91               C52-N8-C7=122.01               

 selected dihedral angles (degree)
 ---------------------------------
C3-C2-N1-C5=  1.49            C3-C2-N1-C65=165.87           N6-C2-N1-C5=113.28            N6-C2-N1-C65=277.66           
H85-C2-N1-C5=237.95           H85-C2-N1-C65= 42.33          N4-C3-C2-N1=359.82            N4-C3-C2-N6=239.98            
N4-C3-C2-H85=119.87           N8-C3-C2-N1=119.84            N8-C3-C2-N6=  0.00            N8-C3-C2-H85=239.89           
H86-C3-C2-N1=239.87           H86-C3-C2-N6=120.03           H86-C3-C2-H85=359.92          C5-N4-C3-C2=358.83            
C5-N4-C3-N8=247.07            C5-N4-C3-H86=122.31           C54-N4-C3-C2=194.47           C54-N4-C3-N8= 82.72           
C54-N4-C3-H86=317.96          N4-C5-N1-C2=357.73            N4-C5-N1-C65=193.06           O9-C5-N1-C2=174.05            
O9-C5-N1-C65=  9.38           N1-C5-N4-C3=  2.13            N1-C5-N4-C54=166.81           O9-C5-N4-C3=185.81            
O9-C5-N4-C54=350.49           C7-N6-C2-N1=246.22            C7-N6-C2-C3=358.02            C7-N6-C2-H85=121.58           
C66-N6-C2-N1= 76.44           C66-N6-C2-C3=188.24           C66-N6-C2-H85=311.80          N8-C7-N6-C2=  3.29            
N8-C7-N6-C66=173.35           O10-C7-N6-C2=187.08           O10-C7-N6-C66=357.14          C7-N8-C3-C2=  1.98            
C7-N8-C3-N4=113.79            C7-N8-C3-H86=238.49           C52-N8-C3-C2=173.57           C52-N8-C3-N4=285.38           
C52-N8-C3-H86= 50.08          C3-N8-C7-N6=356.71            C3-N8-C7-O10=172.90           C52-N8-C7-N6=184.84           
C52-N8-C7-O10=  1.04          

 CMA Distance (Angstroems)
 ---------------------------
R(CMA):  4.0422
           -------------------------------------------------
          |                Final Singlepoint                |
           -------------------------------------------------

          ...................................................
          :                      SETUP                      :
          :.................................................:
          :  # basis functions                 413          :
          :  # atomic orbitals                 413          :
          :  # shells                          231          :
          :  # electrons                       468          :
          :  max. iterations                   250          :
          :  Hamiltonian                  GFN2-xTB          :
          :  restarted?                      false          :
          :  GBSA solvation                   true          :
          :  PC potential                    false          :
          :  electronic temp.          300.0000000     K    :
          :  accuracy                    1.0000000          :
          :  -> integral cutoff          0.2500000E+02      :
          :  -> integral neglect         0.1000000E-07      :
          :  -> SCF convergence          0.1000000E-05 Eh   :
          :  -> wf. convergence          0.1000000E-03 e    :
          :  Broyden damping             0.4000000          :
          ...................................................

 iter      E             dE          RMSdq      gap      omega  full diag
   1   -272.2188402 -0.272219E+03  0.161E-04    2.45       0.0  T
   2   -272.2188402 -0.354817E-09  0.108E-04    2.45      78.2  T
   3   -272.2188402 -0.216005E-10  0.571E-05    2.45     148.0  T

   *** convergence criteria satisfied after 3 iterations ***

         #    Occupation            Energy/Eh            Energy/eV
      -------------------------------------------------------------
         1        2.0000           -0.7413669             -20.1736
       ...           ...                  ...                  ...
       228        2.0000           -0.4179767             -11.3737
       229        2.0000           -0.4178869             -11.3713
       230        2.0000           -0.4175194             -11.3613
       231        2.0000           -0.4166710             -11.3382
       232        2.0000           -0.4159870             -11.3196
       233        2.0000           -0.4157788             -11.3139
       234        2.0000           -0.4154424             -11.3048 (HOMO)
       235                         -0.3255610              -8.8590 (LUMO)
       236                         -0.3248975              -8.8409
       237                         -0.2186729              -5.9504
       238                         -0.2178056              -5.9268
       239                         -0.2171959              -5.9102
       ...                                ...                  ...
       413                          0.6764807              18.4080
      -------------------------------------------------------------
                  HL-Gap            0.0898814 Eh            2.4458 eV
             Fermi-level           -0.3705017 Eh          -10.0819 eV

 SCC (total)                   0 d,  0 h,  0 min,  0.432 sec
 SCC setup                      ...        0 min,  0.004 sec (  0.883%)
 Dispersion                     ...        0 min,  0.006 sec (  1.365%)
 classical contributions        ...        0 min,  0.001 sec (  0.132%)
 integral evaluation            ...        0 min,  0.027 sec (  6.222%)
 iterations                     ...        0 min,  0.192 sec ( 44.287%)
 molecular gradient             ...        0 min,  0.197 sec ( 45.657%)
 printout                       ...        0 min,  0.006 sec (  1.444%)

         :::::::::::::::::::::::::::::::::::::::::::::::::::::
         ::                     SUMMARY                     ::
         :::::::::::::::::::::::::::::::::::::::::::::::::::::
         :: total energy            -269.330290777235 Eh    ::
         :: total w/o Gsasa/hb      -269.320720576243 Eh    ::
         :: gradient norm              0.005120834481 Eh/a0 ::
         :: HOMO-LUMO gap              2.445798510430 eV    ::
         ::.................................................::
         :: SCC energy              -272.218840171774 Eh    ::
         :: -> isotropic ES            0.876536637256 Eh    ::
         :: -> anisotropic ES         -0.007247849753 Eh    ::
         :: -> anisotropic XC          0.055984811310 Eh    ::
         :: -> dispersion             -0.223381759841 Eh    ::
         :: -> Gsolv                  -0.223219893852 Eh    ::
         ::    -> Gelec               -0.213649692860 Eh    ::
         ::    -> Gsasa                0.007181250296 Eh    ::
         ::    -> Ghb                 -0.017832210986 Eh    ::
         ::    -> Gshift               0.001080759698 Eh    ::
         :: repulsion energy           2.873746842948 Eh    ::
         :: add. restraining           0.000000000000 Eh    ::
         :: total charge               1.000000000000 e     ::
         :::::::::::::::::::::::::::::::::::::::::::::::::::::

           -------------------------------------------------
          |                Property Printout                |
           -------------------------------------------------

    * Orbital Energies and Occupations

         #    Occupation            Energy/Eh            Energy/eV
      -------------------------------------------------------------
         1        2.0000           -0.7413669             -20.1736
       ...           ...                  ...                  ...
       222        2.0000           -0.4211647             -11.4605
       223        2.0000           -0.4200889             -11.4312
       224        2.0000           -0.4194664             -11.4143
       225        2.0000           -0.4193771             -11.4118
       226        2.0000           -0.4191800             -11.4065
       227        2.0000           -0.4182601             -11.3814
       228        2.0000           -0.4179767             -11.3737
       229        2.0000           -0.4178869             -11.3713
       230        2.0000           -0.4175194             -11.3613
       231        2.0000           -0.4166710             -11.3382
       232        2.0000           -0.4159870             -11.3196
       233        2.0000           -0.4157788             -11.3139
       234        2.0000           -0.4154424             -11.3048 (HOMO)
       235                         -0.3255610              -8.8590 (LUMO)
       236                         -0.3248975              -8.8409
       237                         -0.2186729              -5.9504
       238                         -0.2178056              -5.9268
       239                         -0.2171959              -5.9102
       240                         -0.2166735              -5.8960
       241                         -0.2166256              -5.8947
       242                         -0.2154977              -5.8640
       243                         -0.2147716              -5.8442
       244                         -0.2145331              -5.8377
       245                         -0.2141577              -5.8275
       ...                                ...                  ...
       413                          0.6764807              18.4080
      -------------------------------------------------------------
                  HL-Gap            0.0898814 Eh            2.4458 eV
             Fermi-level           -0.3705017 Eh          -10.0819 eV

     #   Z          covCN         q      C6AA      α(0)
     1   7 N        2.775    -0.142    24.067     7.286
     2   6 C        3.812     0.090    19.084     6.218
     3   6 C        3.811     0.090    19.088     6.219
     4   7 N        2.775    -0.142    24.068     7.286
     5   6 C        2.759     0.332    21.365     7.569
     6   7 N        2.777    -0.137    23.957     7.269
     7   6 C        2.764     0.324    21.490     7.592
     8   7 N        2.777    -0.135    23.918     7.264
     9   8 O        0.858    -0.512    24.042     6.574
    10   8 O        0.858    -0.485    23.446     6.492
    11   7 N        2.779    -0.139    24.003     7.276
    12   6 C        3.811     0.089    19.108     6.222
    13   6 C        3.810     0.089    19.106     6.222
    14   7 N        2.778    -0.141    24.056     7.285
    15   6 C        2.756     0.331    21.380     7.572
    16   7 N        2.776    -0.139    24.016     7.278
    17   6 C        2.758     0.327    21.452     7.585
    18   7 N        2.777    -0.138    23.981     7.273
    19   8 O        0.857    -0.513    24.075     6.579
    20   8 O        0.858    -0.491    23.579     6.510
    21   7 N        2.777    -0.141    24.043     7.282
    22   6 C        3.811     0.089    19.097     6.220
    23   6 C        3.810     0.089    19.098     6.221
    24   7 N        2.777    -0.142    24.060     7.285
    25   6 C        2.757     0.331    21.373     7.571
    26   7 N        2.778    -0.139    24.015     7.278
    27   6 C        2.760     0.328    21.433     7.581
    28   7 N        2.778    -0.139    24.001     7.276
    29   8 O        0.858    -0.512    24.058     6.576
    30   8 O        0.858    -0.492    23.614     6.515
    31   7 N        2.776    -0.142    24.064     7.286
    32   6 C        3.811     0.089    19.099     6.221
    33   6 C        3.811     0.089    19.100     6.221
    34   7 N        2.776    -0.142    24.064     7.286
    35   6 C        2.756     0.331    21.374     7.571
    36   7 N        2.778    -0.136    23.947     7.268
    37   6 C        2.765     0.325    21.485     7.591
    38   7 N        2.778    -0.136    23.952     7.269
    39   8 O        0.858    -0.514    24.091     6.581
    40   8 O        0.858    -0.485    23.462     6.494
    41   7 N        2.777    -0.141    24.041     7.282
    42   6 C        3.810     0.089    19.104     6.222
    43   6 C        3.811     0.089    19.105     6.222
    44   7 N        2.777    -0.141    24.058     7.285
    45   6 C        2.756     0.331    21.376     7.571
    46   7 N        2.778    -0.139    23.995     7.275
    47   6 C        2.759     0.326    21.464     7.587
    48   7 N        2.778    -0.138    23.974     7.272
    49   8 O        0.857    -0.513    24.084     6.580
    50   8 O        0.858    -0.487    23.500     6.499
    51   6 C        3.681     0.062    19.744     6.364
    52   6 C        3.682     0.054    19.865     6.383
    53   6 C        3.682     0.056    19.837     6.378
    54   6 C        3.682     0.062    19.743     6.363
    55   7 N        2.778    -0.139    24.012     7.278
    56   6 C        3.811     0.089    19.103     6.221
    57   6 C        3.810     0.089    19.104     6.222
    58   7 N        2.777    -0.142    24.060     7.285
    59   6 C        2.757     0.331    21.375     7.571
    60   7 N        2.776    -0.140    24.017     7.279
    61   6 C        2.759     0.326    21.463     7.587
    62   7 N        2.777    -0.137    23.959     7.270
    63   8 O        0.858    -0.513    24.083     6.580
    64   8 O        0.858    -0.485    23.449     6.492
    65   6 C        3.682     0.062    19.738     6.362
    66   6 C        3.681     0.055    19.856     6.382
    67   6 C        3.682     0.056    19.846     6.380
    68   6 C        3.682     0.062    19.744     6.363
    69   6 C        3.681     0.062    19.746     6.364
    70   6 C        3.681     0.055    19.848     6.380
    71   6 C        3.681     0.062    19.740     6.363
    72   6 C        3.682     0.054    19.868     6.383
    73   7 N        2.778    -0.139    24.004     7.277
    74   6 C        3.811     0.089    19.096     6.220
    75   6 C        3.810     0.089    19.099     6.221
    76   7 N        2.778    -0.139    24.001     7.276
    77   6 C        2.759     0.327    21.444     7.583
    78   7 N        2.777    -0.142    24.060     7.285
    79   6 C        2.756     0.331    21.376     7.571
    80   7 N        2.777    -0.142    24.061     7.285
    81   8 O        0.858    -0.488    23.522     6.502
    82   8 O        0.858    -0.513    24.081     6.579
    83   6 C        3.682     0.055    19.858     6.381
    84   6 C        3.681     0.062    19.739     6.363
    85   1 H        0.923     0.095     1.830     2.116
    86   1 H        0.923     0.096     1.826     2.113
    87   1 H        0.923     0.098     1.801     2.099
    88   1 H        0.923     0.098     1.802     2.099
    89   1 H        0.923     0.098     1.806     2.102
    90   1 H        0.923     0.098     1.806     2.102
    91   1 H        0.923     0.098     1.802     2.099
    92   1 H        0.923     0.098     1.800     2.098
    93   1 H        0.923     0.098     1.804     2.100
    94   1 H        0.923     0.098     1.803     2.100
    95   1 H        0.924     0.093     1.849     2.126
    96   1 H        0.924     0.105     1.743     2.065
    97   1 H        0.924     0.094     1.840     2.121
    98   1 H        0.924     0.123     1.590     1.972
    99   1 H        0.924     0.119     1.623     1.992
   100   1 H        0.924     0.094     1.836     2.119
   101   1 H        0.924     0.104     1.749     2.068
   102   1 H        0.924     0.093     1.850     2.127
   103   1 H        0.923     0.098     1.807     2.102
   104   1 H        0.923     0.097     1.808     2.103
   105   1 H        0.924     0.092     1.857     2.131
   106   1 H        0.924     0.104     1.752     2.070
   107   1 H        0.924     0.124     1.585     1.969
   108   1 H        0.924     0.093     1.849     2.126
   109   1 H        0.924     0.120     1.612     1.985
   110   1 H        0.924     0.094     1.838     2.120
   111   1 H        0.924     0.093     1.852     2.128
   112   1 H        0.924     0.105     1.744     2.065
   113   1 H        0.924     0.104     1.746     2.067
   114   1 H        0.924     0.093     1.851     2.128
   115   1 H        0.924     0.095     1.835     2.119
   116   1 H        0.924     0.120     1.616     1.988
   117   1 H        0.924     0.104     1.753     2.071
   118   1 H        0.924     0.093     1.849     2.127
[...]
    64   8 O    1.962 --    61 C    1.612    62 N    0.142    60 N    0.141
    65   6 C    3.941 --    55 N    0.988     1 N    0.985   106 H    0.950
                           105 H    0.950
    66   6 C    3.934 --     6 N    0.986    60 N    0.985   108 H    0.951
                           107 H    0.945
    67   6 C    3.936 --    62 N    0.986    26 N    0.985   110 H    0.950
                           109 H    0.947
    68   6 C    3.941 --    21 N    0.987    58 N    0.987   112 H    0.950
                           111 H    0.950
    69   6 C    3.941 --    41 N    0.987    14 N    0.987   113 H    0.950
                           114 H    0.950
    70   6 C    3.936 --    46 N    0.986    18 N    0.986   115 H    0.950
                           116 H    0.947
    71   6 C    3.941 --    44 N    0.987    34 N    0.986   117 H    0.950
                           118 H    0.950
    72   6 C    3.934 --    48 N    0.986    38 N    0.985   119 H    0.950
                           120 H    0.946
    73   7 N    3.421 --    77 C    1.134    74 C    0.988    83 C    0.985
                            81 O    0.142
    74   6 C    3.960 --    73 N    0.988    78 N    0.979    75 C    0.956
                           121 H    0.943
    75   6 C    3.960 --    76 N    0.987    80 N    0.979    74 C    0.956
                           122 H    0.943
    76   7 N    3.424 --    77 C    1.137    75 C    0.987    53 C    0.986
                            81 O    0.142
    77   6 C    3.960 --    81 O    1.614    76 N    1.137    73 N    1.134
    78   7 N    3.420 --    79 C    1.139    84 C    0.987    74 C    0.979
                            82 O    0.141
    79   6 C    3.958 --    82 O    1.604    80 N    1.139    78 N    1.139
    80   7 N    3.420 --    79 C    1.139    51 C    0.987    75 C    0.979
                            82 O    0.141
    81   8 O    1.962 --    77 C    1.614    76 N    0.142    73 N    0.142
    82   8 O    1.951 --    79 C    1.604    78 N    0.141    80 N    0.141
    83   6 C    3.935 --    36 N    0.986    73 N    0.985   123 H    0.950
                           124 H    0.946
    84   6 C    3.941 --    31 N    0.987    78 N    0.987   125 H    0.950
                           126 H    0.950
    85   1 H    0.991 --     2 C    0.942
    86   1 H    0.991 --     3 C    0.942
    87   1 H    0.990 --    12 C    0.943
    88   1 H    0.990 --    13 C    0.943
    89   1 H    0.990 --    22 C    0.943
    90   1 H    0.990 --    23 C    0.943
    91   1 H    0.990 --    32 C    0.943
    92   1 H    0.990 --    33 C    0.943
    93   1 H    0.990 --    42 C    0.943
    94   1 H    0.990 --    43 C    0.943
    95   1 H    0.990 --    51 C    0.950
    96   1 H    0.988 --    51 C    0.950
    97   1 H    0.990 --    52 C    0.950
    98   1 H    0.984 --    52 C    0.946
    99   1 H    0.985 --    53 C    0.947
   100   1 H    0.990 --    53 C    0.950
   101   1 H    0.989 --    54 C    0.950
   102   1 H    0.990 --    54 C    0.950
   103   1 H    0.990 --    56 C    0.943
   104   1 H    0.990 --    57 C    0.943
   105   1 H    0.991 --    65 C    0.950
   106   1 H    0.988 --    65 C    0.950
   107   1 H    0.984 --    66 C    0.945
   108   1 H    0.990 --    66 C    0.951
   109   1 H    0.985 --    67 C    0.947
   110   1 H    0.990 --    67 C    0.950
   111   1 H    0.991 --    68 C    0.950
   112   1 H    0.988 --    68 C    0.950
   113   1 H    0.988 --    69 C    0.950
   114   1 H    0.991 --    69 C    0.950
   115   1 H    0.990 --    70 C    0.950
   116   1 H    0.985 --    70 C    0.947
   117   1 H    0.989 --    71 C    0.950
   118   1 H    0.990 --    71 C    0.950
   119   1 H    0.990 --    72 C    0.950
   120   1 H    0.984 --    72 C    0.946
   121   1 H    0.990 --    74 C    0.943
   122   1 H    0.990 --    75 C    0.943
   123   1 H    0.990 --    83 C    0.950
   124   1 H    0.984 --    83 C    0.946
   125   1 H    0.989 --    84 C    0.950
   126   1 H    0.990 --    84 C    0.950
   127   6 C    3.976 --   128 C    1.418   133 C    1.415   134 H    0.964
   128   6 C    3.966 --   127 C    1.418   129 C    1.398   135 H    0.958
   129   6 C    3.953 --   130 C    1.413   128 C    1.398   136 H    0.948
   130   6 C    3.961 --   129 C    1.413   131 C    1.411   137 H    0.952
   131   6 C    3.961 --   132 C    1.414   130 C    1.411   138 H    0.952
   132   6 C    3.955 --   131 C    1.414   133 C    1.400   139 H    0.950
   133   6 C    3.965 --   127 C    1.415   132 C    1.400   140 H    0.957
   134   1 H    0.994 --   127 C    0.964
   135   1 H    0.992 --   128 C    0.958
   136   1 H    0.982 --   129 C    0.948
   137   1 H    0.982 --   130 C    0.952
   138   1 H    0.982 --   131 C    0.952
   139   1 H    0.983 --   132 C    0.950
   140   1 H    0.992 --   133 C    0.957
 ---------------------------------------------------------------------------

Topologies differ in bond orders
Writing corrected topology to xtbtopo.sdf

molecular dipole:
                 x           y           z       tot (Debye)
 q only:       -0.020       9.691       0.940
   full:       -0.079       8.496       0.760      21.681
molecular quadrupole (traceless):
                xx          xy          yy          xz          yz          zz
 q only:      118.300     -26.970    -236.990     -10.915     -55.553     118.690
  q+dip:      132.663     -28.875    -268.211     -13.208     -61.456     135.547
   full:      135.008     -29.527    -269.200     -10.682     -61.566     134.192

           -------------------------------------------------
          |                Geometry Summary                 |
           -------------------------------------------------

      molecular mass/u    :     1254.0945146
   center of mass at/Å    :        0.0008386       0.2880852      -0.0086685
  moments of inertia/u·Å² :        0.2046977E+05   0.2108789E+05   0.3091903E+05
rotational constants/cm⁻¹ :        0.8235381E-03   0.7993987E-03   0.5452186E-03

 * 160 selected distances

     #   Z          #   Z                                           value/Å
     1   7 N        2   6 C                                       1.4425467
     2   6 C        3   6 C                                       1.5515746 (max)
     3   6 C        4   7 N                                       1.4425112
     1   7 N        5   6 C                                       1.3715587
     4   7 N        5   6 C                                       1.3714211
     2   6 C        6   7 N                                       1.4414308
     6   7 N        7   6 C                                       1.3688376
     3   6 C        8   7 N                                       1.4418758
     7   6 C        8   7 N                                       1.3667740
     5   6 C        9   8 O                                       1.2118788
     7   6 C       10   8 O                                       1.2122503
    11   7 N       12   6 C                                       1.4423823
    12   6 C       13   6 C                                       1.5501166
    13   6 C       14   7 N                                       1.4435370
    11   7 N       15   6 C                                       1.3701364
    14   7 N       15   6 C                                       1.3708702
    12   6 C       16   7 N                                       1.4411950
    16   7 N       17   6 C                                       1.3721347
    13   6 C       18   7 N                                       1.4410014
    17   6 C       18   7 N                                       1.3701916
    15   6 C       19   8 O                                       1.2128419
    17   6 C       20   8 O                                       1.2122504
    21   7 N       22   6 C                                       1.4424671
    22   6 C       23   6 C                                       1.5507303
    23   6 C       24   7 N                                       1.4435618
    21   7 N       25   6 C                                       1.3705656
    24   7 N       25   6 C                                       1.3704956
    22   6 C       26   7 N                                       1.4414440
    26   7 N       27   6 C                                       1.3700845
    23   6 C       28   7 N                                       1.4405834
    27   6 C       28   7 N                                       1.3694807
    25   6 C       29   8 O                                       1.2121819
    27   6 C       30   8 O                                       1.2119147
    31   7 N       32   6 C                                       1.4439673
    33   6 C       34   7 N                                       1.4440582
    31   7 N       35   6 C                                       1.3711893
    34   7 N       35   6 C                                       1.3711547
    32   6 C       36   7 N                                       1.4404201
    36   7 N       37   6 C                                       1.3666170
    33   6 C       38   7 N                                       1.4401988
    37   6 C       38   7 N                                       1.3673304
    35   6 C       39   8 O                                       1.2128660
    37   6 C       40   8 O                                       1.2113278
    41   7 N       42   6 C                                       1.4425019
    42   6 C       43   6 C                                       1.5506079
    43   6 C       44   7 N                                       1.4440347
    41   7 N       45   6 C                                       1.3710822
    44   7 N       45   6 C                                       1.3710505
    42   6 C       46   7 N                                       1.4419167
    46   7 N       47   6 C                                       1.3695982
    43   6 C       48   7 N                                       1.4395387
    47   6 C       48   7 N                                       1.3707845
    45   6 C       49   8 O                                       1.2128892
    47   6 C       50   8 O                                       1.2118409
    24   7 N       51   6 C                                       1.4378722
     8   7 N       52   6 C                                       1.4374567
    16   7 N       52   6 C                                       1.4392740
    28   7 N       53   6 C                                       1.4370225
     4   7 N       54   6 C                                       1.4389357
    11   7 N       54   6 C                                       1.4358135
    55   7 N       56   6 C                                       1.4425832
    56   6 C       57   6 C                                       1.5505975
    57   6 C       58   7 N                                       1.4435483
    55   7 N       59   6 C                                       1.3701774
    58   7 N       59   6 C                                       1.3706307
    56   6 C       60   7 N                                       1.4406615
    60   7 N       61   6 C                                       1.3724020
    57   6 C       62   7 N                                       1.4410102
    61   6 C       62   7 N                                       1.3684941
    59   6 C       63   8 O                                       1.2127212
    61   6 C       64   8 O                                       1.2109629
     1   7 N       65   6 C                                       1.4386376
    55   7 N       65   6 C                                       1.4362192
     6   7 N       66   6 C                                       1.4382335
    60   7 N       66   6 C                                       1.4391875
    26   7 N       67   6 C                                       1.4375096
    62   7 N       67   6 C                                       1.4375841
    21   7 N       68   6 C                                       1.4371002
    58   7 N       68   6 C                                       1.4378424
    14   7 N       69   6 C                                       1.4377970
    41   7 N       69   6 C                                       1.4375754
    18   7 N       70   6 C                                       1.4377773
    46   7 N       70   6 C                                       1.4372978
    34   7 N       71   6 C                                       1.4386278
    44   7 N       71   6 C                                       1.4381940
    38   7 N       72   6 C                                       1.4374366
    48   7 N       72   6 C                                       1.4372191
    73   7 N       74   6 C                                       1.4395304
    74   6 C       75   6 C                                       1.5504432
    53   6 C       76   7 N                                       1.4369909
    75   6 C       76   7 N                                       1.4407665
    73   7 N       77   6 C                                       1.3711725
    76   7 N       77   6 C                                       1.3696374
    74   6 C       78   7 N                                       1.4436081
    78   7 N       79   6 C                                       1.3710422
    51   6 C       80   7 N                                       1.4380167
    75   6 C       80   7 N                                       1.4433708
    79   6 C       80   7 N                                       1.3707279
    77   6 C       81   8 O                                       1.2112199
    79   6 C       82   8 O                                       1.2129020
    36   7 N       83   6 C                                       1.4370107
    73   7 N       83   6 C                                       1.4369083
    31   7 N       84   6 C                                       1.4384622
    78   7 N       84   6 C                                       1.4380611
     2   6 C       85   1 H                                       1.0989438
     3   6 C       86   1 H                                       1.0989765
    12   6 C       87   1 H                                       1.0980082
    13   6 C       88   1 H                                       1.0980923
    22   6 C       89   1 H                                       1.0983760
    23   6 C       90   1 H                                       1.0983840
    32   6 C       91   1 H                                       1.0979936
    33   6 C       92   1 H                                       1.0979905
    42   6 C       93   1 H                                       1.0981782
    43   6 C       94   1 H                                       1.0980803
    51   6 C       95   1 H                                       1.0962634
    51   6 C       96   1 H                                       1.0962327
    52   6 C       97   1 H                                       1.0957073
    52   6 C       98   1 H                                       1.0962958
    53   6 C       99   1 H                                       1.0959912
    53   6 C      100   1 H                                       1.0959548
    54   6 C      101   1 H                                       1.0963132
    54   6 C      102   1 H                                       1.0961205
    56   6 C      103   1 H                                       1.0980747
    57   6 C      104   1 H                                       1.0981463
    65   6 C      105   1 H                                       1.0963214
    65   6 C      106   1 H                                       1.0962854
    66   6 C      107   1 H                                       1.0961524
    66   6 C      108   1 H                                       1.0955515
    67   6 C      109   1 H                                       1.0960582
    67   6 C      110   1 H                                       1.0961512
    68   6 C      111   1 H                                       1.0963137
    68   6 C      112   1 H                                       1.0962089
    69   6 C      113   1 H                                       1.0962284
    69   6 C      114   1 H                                       1.0964188
    70   6 C      115   1 H                                       1.0964805
    70   6 C      116   1 H                                       1.0959948
    71   6 C      117   1 H                                       1.0962891
    71   6 C      118   1 H                                       1.0962612
    72   6 C      119   1 H                                       1.0951685
    72   6 C      120   1 H                                       1.0959293
    74   6 C      121   1 H                                       1.0981982
    75   6 C      122   1 H                                       1.0982208
    83   6 C      123   1 H                                       1.0952835
    83   6 C      124   1 H                                       1.0960615
    84   6 C      125   1 H                                       1.0962730
    84   6 C      126   1 H                                       1.0963174
   127   6 C      128   6 C                                       1.3859835
   128   6 C      129   6 C                                       1.3879803
   129   6 C      130   6 C                                       1.3875493
   130   6 C      131   6 C                                       1.3900905
   131   6 C      132   6 C                                       1.3875916
   127   6 C      133   6 C                                       1.3861989
   132   6 C      133   6 C                                       1.3875651
   127   6 C      134   1 H                                       1.0838470
   128   6 C      135   1 H                                       1.0808236
   129   6 C      136   1 H                                       1.0820774
   130   6 C      137   1 H                                       1.0826506
   131   6 C      138   1 H                                       1.0826939
   132   6 C      139   1 H                                       1.0820157
   133   6 C      140   1 H                                       1.0798240 (min)

 * 4 distinct bonds (by element types)

   Z      Z             #   av. dist./Å        max./Å        min./Å
   1 H    6 C          49     1.0946984     1.0989765     1.0798240
   6 C    6 C          13     1.4628484     1.5515746     1.3859835
   6 C    7 N          84     1.4166423     1.4440582     1.3666170
   6 C    8 O          14     1.2121463     1.2129020     1.2109629


optimized geometry written to: xtbopt.sdf


           -------------------------------------------------
          | TOTAL ENERGY             -269.330290777235 Eh   |
          | GRADIENT NORM               0.005120834481 Eh/α |
          | HOMO-LUMO GAP               2.445798510430 eV   |
           -------------------------------------------------
########################################################################
[WARNING] Runtime exception occurred
-2- restart_readRestart: Dimension missmatch in restart file.
-1- restart_readRestart: Number of electron missmatch in restart file.
########################################################################

------------------------------------------------------------------------
 * finished run on 2023/11/11 at 14:06:42.418     
------------------------------------------------------------------------
 total:
 * wall-time:     0 d,  0 h,  0 min, 14.733 sec
 *  cpu-time:     0 d,  0 h,  0 min, 45.158 sec
 * ratio c/w:     3.065 speedup
 SCF:
 * wall-time:     0 d,  0 h,  0 min,  0.764 sec
 *  cpu-time:     0 d,  0 h,  0 min,  2.146 sec
 * ratio c/w:     2.808 speedup
 ANC optimizer:
 * wall-time:     0 d,  0 h,  0 min, 13.906 sec
 *  cpu-time:     0 d,  0 h,  0 min, 42.723 sec
 * ratio c/w:     3.072 speedup

