      -----------------------------------------------------------      
     |                   =====================                   |     
     |                           x T B                           |     
     |                   =====================                   |     
     |                         S. Grimme                         |     
     |          Mulliken Center for Theoretical Chemistry        |     
     |                    University of Bonn                     |     
      -----------------------------------------------------------      

   * xtb version 6.6.1 (8d0f1dd) compiled by 'conda@1efc2f54142f' on 2023-08-01

   xtb is free software: you can redistribute it and/or modify it under
   the terms of the GNU Lesser General Public License as published by
   the Free Software Foundation, either version 3 of the License, or
   (at your option) any later version.
   
   xtb is distributed in the hope that it will be useful,
   but WITHOUT ANY WARRANTY; without even the implied warranty of
   MERCHANTABILITY or FITNESS FOR A PARTICULAR PURPOSE.  See the
   GNU Lesser General Public License for more details.
   
   Cite this work as:
   * C. Bannwarth, E. Caldeweyher, S. Ehlert, A. Hansen, P. Pracht,
     J. Seibert, S. Spicher, S. Grimme, WIREs Comput. Mol. Sci., 2020, 11,
     e01493. DOI: 10.1002/wcms.1493
   
   for GFN2-xTB:
   * C. Bannwarth, S. Ehlert and S. Grimme., J. Chem. Theory Comput., 2019,
     15, 1652-1671. DOI: 10.1021/acs.jctc.8b01176
   for GFN1-xTB:
   * S. Grimme, C. Bannwarth, P. Shushkov, J. Chem. Theory Comput., 2017,
     13, 1989-2009. DOI: 10.1021/acs.jctc.7b00118
   for GFN0-xTB:
   * P. Pracht, E. Caldeweyher, S. Ehlert, S. Grimme, ChemRxiv, 2019, preprint.
     DOI: 10.26434/chemrxiv.8326202.v1
   for GFN-FF:
   * S. Spicher and S. Grimme, Angew. Chem. Int. Ed., 2020, 59, 15665-15673.
     DOI: 10.1002/anie.202004239
   
   for ALPB and GBSA implicit solvation:
   * S. Ehlert, M. Stahn, S. Spicher, S. Grimme, J. Chem. Theory Comput.,
     2021, 17, 4250-4261. DOI: 10.1021/acs.jctc.1c00471
   
   for DFT-D4:
   * E. Caldeweyher, C. Bannwarth and S. Grimme, J. Chem. Phys., 2017,
     147, 034112. DOI: 10.1063/1.4993215
   * E. Caldeweyher, S. Ehlert, A. Hansen, H. Neugebauer, S. Spicher,
     C. Bannwarth and S. Grimme, J. Chem. Phys., 2019, 150, 154122.
     DOI: 10.1063/1.5090222
   * E. Caldeweyher, J.-M. Mewes, S. Ehlert and S. Grimme, Phys. Chem. Chem. Phys.
     2020, 22, 8499-8512. DOI: 10.1039/D0CP00502A
   
   for sTDA-xTB:
   * S. Grimme and C. Bannwarth, J. Chem. Phys., 2016, 145, 054103.
     DOI: 10.1063/1.4959605
   
   in the mass-spec context:
   * V. Asgeirsson, C. Bauer and S. Grimme, Chem. Sci., 2017, 8, 4879.
     DOI: 10.1039/c7sc00601b
   * J. Koopman and S. Grimme, ACS Omega 2019, 4, 12, 15120-15133.
     DOI: 10.1021/acsomega.9b02011
   
   for metadynamics refer to:
   * S. Grimme, J. Chem. Theory Comput., 2019, 155, 2847-2862
     DOI: 10.1021/acs.jctc.9b00143
   
   for SPH calculations refer to:
   * S. Spicher and S. Grimme, J. Chem. Theory Comput., 2021, 17, 1701-1714
     DOI: 10.1021/acs.jctc.0c01306
   
   with help from (in alphabetical order)
   P. Atkinson, C. Bannwarth, F. Bohle, G. Brandenburg, E. Caldeweyher
   M. Checinski, S. Dohm, S. Ehlert, S. Ehrlich, I. Gerasimov, C. Hölzer
   A. Katbashev, J. Koopman, C. Lavigne, S. Lehtola, F. März, M. Müller,
   F. Musil, H. Neugebauer, J. Pisarek, C. Plett, P. Pracht, F. Pultar,
   J. Seibert, P. Shushkov, S. Spicher, M. Stahn, M. Steiner, T. Strunk,
   J. Stückrath, T. Rose, and J. Unsleber
   
 * started run on 2023/10/30 at 02:07:41.452     

           -------------------------------------------------
          |                Calculation Setup                |
           -------------------------------------------------

          program call               : xtb mol.sdf --ohess normal --alpb water
          coordinate file            : mol.sdf
          omp threads                :                     8

   ID    Z sym.   atoms
    1    7 N      1, 4, 6, 8, 11, 14, 16, 18, 21, 24, 26, 28, 31, 34, 36, 38,
                  41, 44, 46, 48, 55, 58, 60, 62, 73, 76, 78, 80, 133-135,
                  141, 142
    2    6 C      2, 3, 5, 7, 12, 13, 15, 17, 22, 23, 25, 27, 32, 33, 35, 37,
                  42, 43, 45, 47, 51-54, 56, 57, 59, 61, 65-72, 74, 75, 77,
                  79, 83, 84, 127-132, 136-140, 143, 144
    3    8 O      9, 10, 19, 20, 29, 30, 39, 40, 49, 50, 63, 64, 81, 82
    4    1 H      85-126, 145-157

           -------------------------------------------------
          |                 G F N 2 - x T B                 |
           -------------------------------------------------

        Reference                      10.1021/acs.jctc.8b01176
      * Hamiltonian:
        H0-scaling (s, p, d)           1.850000    2.230000    2.230000
        zeta-weighting                 0.500000
      * Dispersion:
        s8                             2.700000
        a1                             0.520000
        a2                             5.000000
        s9                             5.000000
      * Repulsion:
        kExp                           1.500000    1.000000
        rExp                           1.000000
      * Coulomb:
        alpha                          2.000000
        third order                    shell-resolved
        anisotropic                    true
        a3                             3.000000
        a5                             4.000000
        cn-shift                       1.200000
        cn-exp                         4.000000
        max-rad                        5.000000

      * Solvation model:               ALPB
        Solvent                        water
        Parameter file                 internal GFN2-xTB/ALPB
        Dielectric constant                8.0200E+01
        Reference state                gsolv [1 M gas/solution]
        Free energy shift                  1.0808E-03 Eh       6.7819E-01 kcal/mol
        Temperature                        2.9815E+02 K
        Density                            1.0000E+00 kg/L
        Solvent mass                       1.8000E+01 g/mol
        Interaction kernel             P16
        Born radius scaling (c1)           1.4744E+00
        Born radii integrator          GBOBC
        Born offset                        0.0000E+00 a0       0.0000E+00 AA
        H-bond correction              true
        Ion screening                  false
        Surface tension                    1.0000E-05 Eh       1.5569E+01 dyn/cm
        Grid points                               230 per atom

          ...................................................
          :                      SETUP                      :
          :.................................................:
          :  # basis functions                 463          :
          :  # atomic orbitals                 463          :
          :  # shells                          259          :
          :  # electrons                       524          :
          :  max. iterations                   250          :
          :  Hamiltonian                  GFN2-xTB          :
          :  restarted?                      false          :
          :  GBSA solvation                   true          :
          :  PC potential                    false          :
          :  electronic temp.          300.0000000     K    :
          :  accuracy                    1.0000000          :
          :  -> integral cutoff          0.2500000E+02      :
          :  -> integral neglect         0.1000000E-07      :
          :  -> SCF convergence          0.1000000E-05 Eh   :
          :  -> wf. convergence          0.1000000E-03 e    :
          :  Broyden damping             0.4000000          :
          ...................................................

 iter      E             dE          RMSdq      gap      omega  full diag
   1   -297.2092998 -0.297209E+03  0.477E+00    0.13       0.0  T
   2   -292.6671468  0.454215E+01  0.471E+00    0.36       1.0  T
   3   -296.0203818 -0.335324E+01  0.313E+00    0.05       1.0  T
   4   -296.1980032 -0.177621E+00  0.324E+00    0.28       1.0  T
   5   -300.0363286 -0.383833E+01  0.165E+00    0.76       1.0  T
   6   -300.4029796 -0.366651E+00  0.790E-01    0.23       1.0  T
   7   -300.4118867 -0.890712E-02  0.536E-01    0.30       1.0  T
   8   -300.4213204 -0.943369E-02  0.500E-01    0.09       1.0  T
   9   -300.4416217 -0.203013E-01  0.266E-01    0.41       1.0  T
  10   -300.4634711 -0.218494E-01  0.149E-01    0.11       1.0  T
  11   -300.4639850 -0.513847E-03  0.919E-02    0.13       1.0  T
  12   -300.4532065  0.107785E-01  0.200E-01    0.05       1.0  T
  13   -300.4654678 -0.122613E-01  0.593E-02    0.10       1.0  T
  14   -300.4658669 -0.399103E-03  0.272E-02    0.10       1.0  T
  15   -300.4659533 -0.864347E-04  0.122E-02    0.10       1.0  T
  16   -300.4659533  0.523430E-07  0.848E-03    0.10       1.0  T
  17   -300.4659452  0.806062E-05  0.904E-03    0.10       1.0  T
  18   -300.4659672 -0.219663E-04  0.396E-03    0.10       2.0  T
  19   -300.4659707 -0.354544E-05  0.107E-03    0.10       7.5  T
  20   -300.4659707  0.870006E-07  0.100E-03    0.10       8.0  T
  21   -300.4659707 -0.901716E-07  0.678E-04    0.10      11.8  T
  22   -300.4659708 -0.101294E-06  0.287E-04    0.10      27.8  T

   *** convergence criteria satisfied after 22 iterations ***

         #    Occupation            Energy/Eh            Energy/eV
      -------------------------------------------------------------
         1        2.0000           -0.9929197             -27.0187
       ...           ...                  ...                  ...
       256        2.0000           -0.3645627              -9.9203
       257        2.0000           -0.3502057              -9.5296
       258        2.0000           -0.3334482              -9.0736
       259        2.0000           -0.3261515              -8.8750
       260        2.0000           -0.3006508              -8.1811
       261        2.0000           -0.2780772              -7.5669
       262        1.7481           -0.2638420              -7.1795 (HOMO)
       263        0.2505           -0.2601552              -7.0792 (LUMO)
       264        0.0011           -0.2548545              -6.9349
       265        0.0003           -0.2536917              -6.9033
       266        0.0000           -0.2494441              -6.7877
       267        0.0000           -0.2483223              -6.7572
       ...           ...                  ...                  ...
       463                          9.8477593             267.9712
      -------------------------------------------------------------
                  HL-Gap            0.0036868 Eh            0.1003 eV
             Fermi-level           -0.2620017 Eh           -7.1294 eV

 SCC (total)                   0 d,  0 h,  0 min,  4.472 sec
 SCC setup                      ...        0 min,  0.179 sec (  4.004%)
 Dispersion                     ...        0 min,  0.088 sec (  1.977%)
 classical contributions        ...        0 min,  0.003 sec (  0.077%)
 integral evaluation            ...        0 min,  0.233 sec (  5.219%)
 iterations                     ...        0 min,  3.640 sec ( 81.411%)
 molecular gradient             ...        0 min,  0.316 sec (  7.075%)
 printout                       ...        0 min,  0.011 sec (  0.235%)

         :::::::::::::::::::::::::::::::::::::::::::::::::::::
         ::                     SUMMARY                     ::
         :::::::::::::::::::::::::::::::::::::::::::::::::::::
         :: total energy            -295.610504402577 Eh    ::
         :: total w/o Gsasa/hb      -295.610943353910 Eh    ::
         :: gradient norm              4.995906444434 Eh/a0 ::
         :: HOMO-LUMO gap              0.100322658762 eV    ::
         ::.................................................::
         :: SCC energy              -300.465970844109 Eh    ::
         :: -> isotropic ES            0.918180547219 Eh    ::
         :: -> anisotropic ES          0.057236877743 Eh    ::
         :: -> anisotropic XC          0.104765328108 Eh    ::
         :: -> dispersion             -0.296538915636 Eh    ::
         :: -> Gsolv                  -0.142908169084 Eh    ::
         ::    -> Gelec               -0.143347120417 Eh    ::
         ::    -> Gsasa                0.016302661431 Eh    ::
         ::    -> Ghb                 -0.016944469797 Eh    ::
         ::    -> Gshift               0.001080759698 Eh    ::
         :: repulsion energy           4.831635217292 Eh    ::
         :: add. restraining           0.000000000000 Eh    ::
         :: total charge              -0.000000000000 e     ::
         :::::::::::::::::::::::::::::::::::::::::::::::::::::

      ----------------------------------------------------------- 
     |                   =====================                   |
     |                        A N C O P T                        |
     |                   =====================                   |
     |               Approximate Normal Coordinate               |
     |                Rational Function Optimizer                |
      ----------------------------------------------------------- 

          ...................................................
          :                      SETUP                      :
          :.................................................:
          :   optimization level            normal          :
          :   max. optcycles                   471          :
          :   ANC micro-cycles                  20          :
          :   degrees of freedom               465          :
          :.................................................:
          :   RF solver                   davidson          :
          :   write xtbopt.log                true          :
          :   linear?                        false          :
          :   energy convergence         0.5000000E-05 Eh   :
          :   grad. convergence          0.1000000E-02 Eh/α :
          :   maxmium RF displ.          1.0000000          :
          :   Hlow (freq-cutoff)         0.1000000E-01      :
          :   Hmax (freq-cutoff)         5.0000000          :
          :   S6 in model hess.         20.0000000          :
          ...................................................

generating ANC from model Hessian ...
Using Lindh-Hessian (1995)
 Shifting diagonal of input Hessian by    9.3759559756229210E-003
 Lowest  eigenvalues of input Hessian
    0.000000    0.000000    0.000000    0.000000    0.000000    0.000000
    0.010000    0.010111    0.010389    0.010471    0.011312    0.011904
    0.012682    0.012998    0.013766    0.014025    0.014325    0.015268
 Highest eigenvalues
    5.267252    5.373247    6.643689    9.474408   11.273610   12.737564


........................................................................
.............................. CYCLE    1 ..............................
........................................................................

 iter      E             dE          RMSdq      gap      omega  full diag
   1   -300.4659709 -0.300466E+03  0.510E-05    0.10       0.0  T
   2   -300.4659708  0.329974E-07  0.293E-04    0.10      27.3  T
   3   -300.4659709 -0.322635E-07  0.616E-05    0.10     129.7  T
     SCC iter.                  ...        0 min,  0.622 sec
     gradient                   ...        0 min,  0.308 sec
 * total energy  :  -295.6105044 Eh     change       -0.2458836E-07 Eh
   gradient norm :     4.9959012 Eh/α   predicted     0.0000000E+00 (-100.00%)
   displ. norm   :     0.6892370 α      lambda       -0.3355924E+01
   maximum displ.:     0.4305586 α      in ANC's #464, #454, #461, ...

........................................................................
.............................. CYCLE    2 ..............................
........................................................................

 iter      E             dE          RMSdq      gap      omega  full diag
   1   -300.8644696 -0.300864E+03  0.931E-01    0.42       0.0  T
   2   -300.1399180  0.724552E+00  0.157E+00    0.14       1.0  T
   3   -300.9213589 -0.781441E+00  0.793E-01    0.37       1.0  T
   4   -300.8117260  0.109633E+00  0.907E-01    0.13       1.0  T
   5   -300.9715448 -0.159819E+00  0.517E-01    0.23       1.0  T
   6   -301.0199689 -0.484241E-01  0.218E-01    0.05       1.0  T
   7   -301.0087979  0.111710E-01  0.304E-01    0.04       1.0  T
   8   -301.0247282 -0.159303E-01  0.121E-01    0.09       1.0  T
   9   -301.0264220 -0.169377E-02  0.657E-02    0.05       1.0  T
  10   -301.0272183 -0.796334E-03  0.434E-02    0.07       1.0  T
  11   -301.0276500 -0.431665E-03  0.148E-02    0.06       1.0  T
  12   -301.0277002 -0.501581E-04  0.866E-03    0.07       1.0  T
  13   -301.0277269 -0.267491E-04  0.181E-03    0.06       4.4  T
  14   -301.0277258  0.111594E-05  0.235E-03    0.06       3.4  T
  15   -301.0277270 -0.124927E-05  0.126E-03    0.06       6.4  T
  16   -301.0277275 -0.466368E-06  0.428E-04    0.06      18.7  T
  17   -301.0277275 -0.316066E-07  0.314E-04    0.06      25.4  T
     SCC iter.                  ...        0 min,  2.469 sec
     gradient                   ...        0 min,  0.370 sec
 * total energy  :  -297.3399895 Eh     change       -0.1729485E+01 Eh
   gradient norm :     1.5474347 Eh/α   predicted    -0.2475074E+01 (  43.11%)
   displ. norm   :     0.6551622 α      lambda       -0.9191551E+00
   maximum displ.:     0.1947427 α      in ANC's #451, #454, #312, ...

........................................................................
.............................. CYCLE    3 ..............................
........................................................................

 iter      E             dE          RMSdq      gap      omega  full diag
   1   -301.4130381 -0.301413E+03  0.696E-01    0.93       0.0  T
   2   -301.1516551  0.261383E+00  0.128E+00    0.04       1.0  T
   3   -301.5044857 -0.352831E+00  0.425E-01    0.16       1.0  T
   4   -301.5146608 -0.101751E-01  0.276E-01    0.05       1.0  T
   5   -301.4993621  0.152987E-01  0.283E-01    0.40       1.0  T
   6   -301.5171734 -0.178113E-01  0.153E-01    0.19       1.0  T
   7   -301.5217075 -0.453407E-02  0.678E-02    0.11       1.0  T
   8   -301.5211619  0.545585E-03  0.636E-02    0.07       1.0  T
   9   -301.5217371 -0.575171E-03  0.487E-02    0.12       1.0  T
  10   -301.5225765 -0.839360E-03  0.703E-03    0.09       1.1  T
  11   -301.5225407  0.357975E-04  0.126E-02    0.10       1.0  T
  12   -301.5225844 -0.437696E-04  0.338E-03    0.09       2.4  T
  13   -301.5225872 -0.279190E-05  0.136E-03    0.09       5.8  T
  14   -301.5225874 -0.209262E-06  0.749E-04    0.09      10.7  T
  15   -301.5225875 -0.647120E-07  0.496E-04    0.09      16.1  T
     SCC iter.                  ...        0 min,  2.234 sec
     gradient                   ...        0 min,  0.315 sec
 * total energy  :  -298.0514408 Eh     change       -0.7114513E+00 Eh
   gradient norm :     0.9433230 Eh/α   predicted    -0.6568493E+00 (  -7.67%)
   displ. norm   :     0.6838850 α      lambda       -0.5750628E+00
   maximum displ.:     0.2065277 α      in ANC's #451, #454, #312, ...

........................................................................
.............................. CYCLE    4 ..............................
........................................................................

 iter      E             dE          RMSdq      gap      omega  full diag
   1   -301.8802890 -0.301880E+03  0.511E-01    1.10       0.0  T
   2   -301.6978774  0.182412E+00  0.827E-01    0.01       1.0  T
   3   -301.9111935 -0.213316E+00  0.306E-01    0.79       1.0  T
   4   -301.9183424 -0.714891E-02  0.188E-01    0.54       1.0  T
   5   -301.9222463 -0.390396E-02  0.103E-01    0.30       1.0  T
   6   -301.9237551 -0.150876E-02  0.415E-02    0.18       1.0  T
   7   -301.9238805 -0.125448E-03  0.149E-02    0.16       1.0  T
   8   -301.9238716  0.890334E-05  0.135E-02    0.17       1.0  T
   9   -301.9238949 -0.232847E-04  0.489E-03    0.16       1.6  T
  10   -301.9238945  0.403660E-06  0.389E-03    0.17       2.1  T
  11   -301.9238952 -0.692997E-06  0.258E-03    0.16       3.1  T
  12   -301.9238964 -0.116456E-05  0.120E-03    0.17       6.6  T
  13   -301.9238967 -0.321154E-06  0.348E-04    0.17      22.9  T
  14   -301.9238967 -0.746343E-08  0.189E-04    0.17      42.3  T
     SCC iter.                  ...        0 min,  1.771 sec
     gradient                   ...        0 min,  0.334 sec
 * total energy  :  -298.5156477 Eh     change       -0.4642069E+00 Eh
   gradient norm :     0.5855089 Eh/α   predicted    -0.4220095E+00 (  -9.09%)
   displ. norm   :     0.7362381 α      lambda       -0.3854376E+00
   maximum displ.:     0.1710065 α      in ANC's #451, #454, #285, ...

........................................................................
.............................. CYCLE    5 ..............................
........................................................................

 iter      E             dE          RMSdq      gap      omega  full diag
   1   -302.1769463 -0.302177E+03  0.357E-01    1.21       0.0  T
   2   -302.1867884 -0.984211E-02  0.257E-01    0.65       1.0  T
   3   -302.1905484 -0.376000E-02  0.128E-01    0.76       1.0  T
   4   -302.1906897 -0.141362E-03  0.546E-02    0.62       1.0  T
   5   -302.1909483 -0.258530E-03  0.191E-02    0.64       1.0  T
   6   -302.1909750 -0.267348E-04  0.927E-03    0.64       1.0  T
   7   -302.1909845 -0.953224E-05  0.379E-03    0.65       2.1  T
   8   -302.1909859 -0.137236E-05  0.168E-03    0.65       4.7  T
   9   -302.1909860 -0.144968E-06  0.840E-04    0.65       9.5  T
  10   -302.1909861 -0.359568E-07  0.387E-04    0.65      20.6  T
     SCC iter.                  ...        0 min,  1.469 sec
     gradient                   ...        0 min,  0.321 sec
 * total energy  :  -298.8336322 Eh     change       -0.3179845E+00 Eh
   gradient norm :     0.4082847 Eh/α   predicted    -0.2971813E+00 (  -6.54%)
   displ. norm   :     0.7525623 α      lambda       -0.2653121E+00
   maximum displ.:     0.1629555 α      in ANC's #451, #285, #110, ...

........................................................................
.............................. CYCLE    6 ..............................
........................................................................

 iter      E             dE          RMSdq      gap      omega  full diag
   1   -302.3609415 -0.302361E+03  0.320E-01    1.53       0.0  T
   2   -302.3657491 -0.480763E-02  0.202E-01    1.32       1.0  T
   3   -302.3669248 -0.117569E-02  0.984E-02    1.37       1.0  T
   4   -302.3673391 -0.414258E-03  0.353E-02    1.29       1.0  T
   5   -302.3674551 -0.116016E-03  0.155E-02    1.30       1.0  T
   6   -302.3674770 -0.219293E-04  0.707E-03    1.30       1.1  T
   7   -302.3674821 -0.508546E-05  0.281E-03    1.30       2.8  T
   8   -302.3674830 -0.841874E-06  0.101E-03    1.31       7.9  T
   9   -302.3674830 -0.425628E-07  0.509E-04    1.31      15.7  T
  10   -302.3674830 -0.956686E-08  0.216E-04    1.31      37.0  T
     SCC iter.                  ...        0 min,  1.373 sec
     gradient                   ...        0 min,  0.260 sec
 * total energy  :  -299.0568270 Eh     change       -0.2231947E+00 Eh
   gradient norm :     0.3252018 Eh/α   predicted    -0.2077859E+00 (  -6.90%)
   displ. norm   :     0.7722085 α      lambda       -0.2006016E+00
   maximum displ.:     0.1885098 α      in ANC's #285, #451, #110, ...

........................................................................
.............................. CYCLE    7 ..............................
........................................................................

 iter      E             dE          RMSdq      gap      omega  full diag
   1   -302.4891839 -0.302489E+03  0.362E-01    1.60       0.0  T
   2   -302.4928763 -0.369240E-02  0.225E-01    1.59       1.0  T
   3   -302.4940737 -0.119736E-02  0.141E-01    1.61       1.0  T
   4   -302.4956194 -0.154574E-02  0.748E-02    1.65       1.0  T
   5   -302.4963442 -0.724746E-03  0.741E-02    1.69       1.0  T
   6   -302.4959040  0.440166E-03  0.747E-02    1.67       1.0  T
   7   -302.4952201  0.683924E-03  0.881E-02    1.61       1.0  T
   8   -302.5065759 -0.113558E-01  0.173E-01    1.97       1.0  T
   9   -302.5035142  0.306169E-02  0.149E-01    1.90       1.0  T
  10   -302.5021681  0.134605E-02  0.136E-01    1.88       1.0  T
  11   -302.5063773 -0.420918E-02  0.763E-02    2.00       1.0  T
  12   -302.4757656  0.306117E-01  0.106E+00    1.38       1.0  T
  13   -302.5033506 -0.275850E-01  0.149E-01    1.90       1.0  T
  14   -302.4984277  0.492294E-02  0.110E-01    1.78       1.0  T
  15   -302.4973369  0.109075E-02  0.100E-01    1.74       1.0  T
  16   -302.4963050  0.103193E-02  0.936E-02    1.69       1.0  T
  17   -302.4959871  0.317887E-03  0.890E-02    1.67       1.0  T
  18   -302.4966735 -0.686348E-03  0.859E-02    1.71       1.0  T
  19   -302.4972207 -0.547239E-03  0.904E-02    1.74       1.0  T
  20   -302.4966548  0.565939E-03  0.858E-02    1.71       1.0  T
  21   -302.4954035  0.125124E-02  0.955E-02    1.63       1.0  T
  22   -302.4960314 -0.627884E-03  0.846E-02    1.67       1.0  T
  23   -302.4971299 -0.109853E-02  0.914E-02    1.73       1.0  T
  24   -302.5015102 -0.438029E-02  0.134E-01    1.87       1.0  T
  25   -302.5059364 -0.442614E-02  0.167E-01    1.96       1.0  T
  26   -302.5061905 -0.254160E-03  0.168E-01    1.96       1.0  T
  27   -302.5052608  0.929664E-03  0.164E-01    1.94       1.0  T
  28   -302.4987426  0.651823E-02  0.125E-01    1.79       1.0  T
  29   -302.4948652  0.387743E-02  0.170E-01    1.59       1.0  T
  30   -302.4944520  0.413203E-03  0.237E-01    1.58       1.0  T
  31   -302.4937904  0.661565E-03  0.366E-01    1.60       1.0  T
  32   -302.4927967  0.993702E-03  0.514E-01    1.63       1.0  T
  33   -302.4924256  0.371108E-03  0.561E-01    1.64       1.0  T
  34   -302.4925027 -0.771422E-04  0.549E-01    1.64       1.0  T
  35   -302.4925563 -0.536000E-04  0.539E-01    1.64       1.0  T
  36   -302.4923511  0.205252E-03  0.567E-01    1.64       1.0  T
  37   -302.4923657 -0.146381E-04  0.566E-01    1.64       1.0  T
  38   -302.4928440 -0.478282E-03  0.504E-01    1.63       1.0  T
  39   -302.4935338 -0.689808E-03  0.402E-01    1.61       1.0  T
  40   -302.4942438 -0.709967E-03  0.268E-01    1.59       1.0  T
  41   -302.4949755 -0.731742E-03  0.135E-01    1.60       1.0  T
  42   -302.4965281 -0.155260E-02  0.857E-02    1.70       1.0  T
  43   -302.4991983 -0.267012E-02  0.113E-01    1.81       1.0  T
  44   -302.5020533 -0.285500E-02  0.142E-01    1.88       1.0  T
  45   -302.5044521 -0.239881E-02  0.158E-01    1.93       1.0  T
  46   -302.5054626 -0.101050E-02  0.165E-01    1.95       1.0  T
  47   -302.5051063  0.356307E-03  0.163E-01    1.94       1.0  T
  48   -302.5032900  0.181625E-02  0.152E-01    1.90       1.0  T
  49   -302.4998952  0.339481E-02  0.129E-01    1.82       1.0  T
  50   -302.4972673  0.262789E-02  0.108E-01    1.73       1.0  T
  51   -302.4962539  0.101337E-02  0.102E-01    1.68       1.0  T
  52   -302.4956590  0.594979E-03  0.105E-01    1.65       1.0  T
  53   -302.4955323  0.126673E-03  0.107E-01    1.64       1.0  T
  54   -302.4955440 -0.116929E-04  0.107E-01    1.64       1.0  T
  55   -302.4957090 -0.165039E-03  0.103E-01    1.65       1.0  T
  56   -302.4961354 -0.426388E-03  0.996E-02    1.68       1.0  T
  57   -302.4978479 -0.171247E-02  0.112E-01    1.76       1.0  T
  58   -302.5005384 -0.269050E-02  0.139E-01    1.84       1.0  T
  59   -302.5050262 -0.448778E-02  0.176E-01    1.93       1.0  T
  60   -302.5062695 -0.124338E-02  0.180E-01    2.00       1.0  T
  61   -302.5064177 -0.148204E-03  0.179E-01    1.99       1.0  T
  62   -302.5061285  0.289214E-03  0.166E-01    2.00       1.0  T
  63   -302.5060763  0.522044E-04  0.160E-01    2.00       1.0  T
  64   -302.5060118  0.645108E-04  0.148E-01    2.00       1.0  T
  65   -302.5060242 -0.123296E-04  0.124E-01    2.00       1.0  T
  66   -302.5062907 -0.266580E-03  0.953E-02    2.00       1.0  T
  67   -302.5064737 -0.182968E-03  0.814E-02    2.00       1.0  T
  68   -302.5062766  0.197086E-03  0.969E-02    2.00       1.0  T
  69   -302.5060127  0.263899E-03  0.133E-01    2.00       1.0  T
  70   -302.5063279 -0.315233E-03  0.853E-02    2.00       1.0  T
  71   -302.5069728 -0.644806E-03  0.114E-02    1.98       1.0  T
  72   -302.5049024  0.207033E-02  0.115E-01    1.92       1.0  T
  73   -302.4997175  0.518494E-02  0.251E-01    1.83       1.0  T
  74   -302.4866762  0.130413E-01  0.702E-01    1.49       1.0  T
  75   -302.4570503  0.296259E-01  0.172E+00    1.28       1.0  T
  76   -302.4762085 -0.191583E-01  0.135E+00    1.73       1.0  T
  77   -302.4589873  0.172213E-01  0.168E+00    1.30       1.0  T
  78   -302.4757070 -0.167197E-01  0.131E+00    1.66       1.0  T
  79   -302.4756662  0.407522E-04  0.132E+00    1.65       1.0  T
  80   -302.4760363 -0.370088E-03  0.118E+00    1.45       1.0  T
  81   -302.4756182  0.418113E-03  0.130E+00    1.59       1.0  T
  82   -302.4760492 -0.430961E-03  0.116E+00    1.43       1.0  T
  83   -302.4759025  0.146629E-03  0.122E+00    1.48       1.0  T
  84   -302.4760720 -0.169460E-03  0.114E+00    1.42       1.0  T
  85   -302.4760066  0.653564E-04  0.116E+00    1.42       1.0  T
  86   -302.4765640 -0.557344E-03  0.104E+00    1.38       1.0  T
  87   -302.5063599 -0.297960E-01  0.114E-01    2.02       1.0  T
  88   -302.3747204  0.131640E+00  0.286E+00    1.71       1.0  T
  89   -302.1601935  0.214527E+00  0.508E+00    0.60       1.0  T
  90   -302.2068246 -0.466311E-01  0.466E+00    0.84       1.0  T
  91   -302.2008275  0.599710E-02  0.469E+00    0.78       1.0  T
  92   -302.3363287 -0.135501E+00  0.338E+00    1.51       1.0  T
  93   -302.4946322 -0.158303E+00  0.275E-01    1.59       1.0  T
  94   -302.4939200  0.712191E-03  0.349E-01    1.59       1.0  T
  95   -302.4385613  0.553587E-01  0.214E+00    1.98       1.0  T
  96   -302.4741420 -0.355807E-01  0.943E-01    1.36       1.0  T
  97   -302.4774919 -0.334995E-02  0.153E+00    1.57       1.0  T
  98   -302.4758047  0.168720E-02  0.124E+00    1.48       1.0  T
  99   -302.4765067 -0.702019E-03  0.107E+00    1.38       1.0  T
 100   -302.4761954  0.311299E-03  0.112E+00    1.39       1.0  T
 101   -302.4762036 -0.815358E-05  0.110E+00    1.39       1.0  T
 102   -302.5041953 -0.279917E-01  0.250E-01    1.95       1.0  T
 103   -302.4417706  0.624247E-01  0.207E+00    1.97       1.0  T
 104   -302.5055601 -0.637895E-01  0.270E-01    1.98       1.0  T
 105   -302.4884562  0.171039E-01  0.832E-01    1.79       1.0  T
 106   -302.4695152  0.189410E-01  0.174E+00    2.03       1.0  T
 107   -302.4971965 -0.276813E-01  0.272E-01    1.76       1.0  T
 108   -302.5069189 -0.972238E-02  0.209E-02    1.97       1.0  T
 109   -302.5062486  0.670291E-03  0.129E-01    2.01       1.0  T
 110   -302.5062156  0.330123E-04  0.793E-02    2.01       1.0  T
 111   -302.5068275 -0.611897E-03  0.279E-02    1.99       1.0  T
 112   -302.5046606  0.216695E-02  0.141E-01    1.92       1.0  T
 113   -302.4934546  0.112060E-01  0.471E-01    1.67       1.0  T
 114   -302.4754449  0.180097E-01  0.105E+00    1.38       1.0  T
 115   -302.4782474 -0.280254E-02  0.150E+00    1.65       1.0  T
 116   -302.4753029  0.294458E-02  0.126E+00    1.53       1.0  T
 117   -302.5064061 -0.311032E-01  0.126E-01    1.98       1.0  T
 118   -302.4699027  0.365034E-01  0.168E+00    2.03       1.0  T
 119   -302.4920953 -0.221927E-01  0.606E-01    1.65       1.0  T
 120   -302.4674031  0.246922E-01  0.178E+00    2.04       1.0  T
 121   -302.5064376 -0.390345E-01  0.256E-01    1.96       1.0  T
 122   -302.5006507  0.578687E-02  0.108E-01    1.85       1.0  T
 123   -302.5061313 -0.548055E-02  0.149E-01    1.96       1.0  T
 124   -302.5069407 -0.809401E-03  0.206E-02    1.97       1.0  T
 125   -302.5064170  0.523699E-03  0.712E-02    2.00       1.0  T
 126   -302.5061052  0.311747E-03  0.106E-01    2.00       1.0  T
 127   -302.5062384 -0.133166E-03  0.842E-02    2.00       1.0  T
 128   -302.5062510 -0.125721E-04  0.828E-02    2.00       1.0  T
 129   -302.5062108  0.402193E-04  0.133E-01    2.00       1.0  T
 130   -302.5060721  0.138702E-03  0.109E-01    2.00       1.0  T
 131   -302.5060362  0.358418E-04  0.119E-01    2.01       1.0  T
 132   -302.5069104 -0.874165E-03  0.225E-02    1.99       1.0  T
 133   -302.5063047  0.605658E-03  0.673E-02    1.95       1.0  T
 134   -302.5036296  0.267508E-02  0.158E-01    1.90       1.0  T
 135   -302.5035605  0.691660E-04  0.159E-01    1.90       1.0  T
 136   -302.5068310 -0.327057E-02  0.386E-02    1.99       1.0  T
 137   -302.5069599 -0.128895E-03  0.104E-02    1.98       1.0  T
 138   -302.5068393  0.120640E-03  0.302E-02    1.97       1.0  T
 139   -302.5068721 -0.327783E-04  0.260E-02    1.97       1.0  T
 140   -302.5068147  0.573346E-04  0.329E-02    1.97       1.0  T
 141   -302.5067801  0.346038E-04  0.363E-02    1.97       1.0  T
 142   -302.5067743  0.580249E-05  0.369E-02    1.97       1.0  T
 143   -302.5067640  0.103102E-04  0.379E-02    1.97       1.0  T
 144   -302.5067702 -0.617329E-05  0.374E-02    1.97       1.0  T
 145   -302.5068126 -0.424335E-04  0.334E-02    1.97       1.0  T
 146   -302.5068506 -0.379977E-04  0.293E-02    1.97       1.0  T
 147   -302.5068826 -0.319323E-04  0.253E-02    1.97       1.0  T
 148   -302.5069089 -0.263621E-04  0.215E-02    1.97       1.0  T
 149   -302.5069287 -0.197466E-04  0.180E-02    1.97       1.0  T
 150   -302.5069434 -0.147127E-04  0.149E-02    1.98       1.0  T
 151   -302.5069539 -0.105299E-04  0.122E-02    1.98       1.0  T
 152   -302.5069613 -0.737615E-05  0.990E-03    1.98       1.0  T
 153   -302.5069663 -0.501203E-05  0.793E-03    1.98       1.0  T
 154   -302.5069696 -0.333619E-05  0.627E-03    1.98       1.3  T
 155   -302.5069719 -0.221384E-05  0.487E-03    1.98       1.6  T
 156   -302.5069733 -0.145947E-05  0.366E-03    1.98       2.2  T
 157   -302.5069742 -0.936074E-06  0.260E-03    1.98       3.1  T
 158   -302.5069748 -0.562138E-06  0.166E-03    1.98       4.8  T
 159   -302.5069751 -0.285264E-06  0.852E-04    1.98       9.4  T
 160   -302.5069752 -0.924666E-07  0.248E-04    1.98      32.2  T
     SCC iter.                  ...        0 min, 21.169 sec
     gradient                   ...        0 min,  0.404 sec
 * total energy  :  -299.2397259 Eh     change       -0.1828989E+00 Eh
   gradient norm :     0.3475691 Eh/α   predicted    -0.1601107E+00 ( -12.46%)
   displ. norm   :     0.8560883 α      lambda       -0.2128932E+00
   maximum displ.:     0.2562007 α      in ANC's #285, #451, #110, ...

........................................................................
.............................. CYCLE    8 ..............................
........................................................................

 iter      E             dE          RMSdq      gap      omega  full diag
   1   -302.6266252 -0.302627E+03  0.362E-01    1.85       0.0  T
   2   -302.6410467 -0.144215E-01  0.252E-01    2.19       1.0  T
   3   -302.6486468 -0.760012E-02  0.110E-01    2.12       1.0  T
   4   -302.6486012  0.455876E-04  0.546E-02    2.10       1.0  T
   5   -302.6486995 -0.983222E-04  0.273E-02    2.13       1.0  T
   6   -302.6488001 -0.100568E-03  0.583E-03    2.12       1.4  T
   7   -302.6488042 -0.410583E-05  0.296E-03    2.12       2.7  T
   8   -302.6488047 -0.447679E-06  0.125E-03    2.12       6.4  T
   9   -302.6488048 -0.143030E-06  0.589E-04    2.12      13.6  T
  10   -302.6488048 -0.274129E-07  0.279E-04    2.12      28.6  T
     SCC iter.                  ...        0 min,  1.483 sec
     gradient                   ...        0 min,  0.352 sec
 * total energy  :  -299.4074981 Eh     change       -0.1677722E+00 Eh
   gradient norm :     0.2710661 Eh/α   predicted    -0.1844598E+00 (   9.95%)
   displ. norm   :     0.7194847 α      lambda       -0.1242051E+00
   maximum displ.:     0.1809867 α      in ANC's #285, #110, #451, ...

........................................................................
.............................. CYCLE    9 ..............................
........................................................................

 iter      E             dE          RMSdq      gap      omega  full diag
   1   -302.7059491 -0.302706E+03  0.214E-01    1.96       0.0  T
   2   -302.7094994 -0.355021E-02  0.137E-01    2.17       1.0  T
   3   -302.7108399 -0.134053E-02  0.735E-02    2.08       1.0  T
   4   -302.7109270 -0.871434E-04  0.297E-02    2.10       1.0  T
   5   -302.7109637 -0.366800E-04  0.118E-02    2.11       1.0  T
   6   -302.7109832 -0.195163E-04  0.253E-03    2.11       3.1  T
   7   -302.7109833 -0.100404E-06  0.145E-03    2.11       5.5  T
   8   -302.7109834 -0.742210E-07  0.733E-04    2.11      10.9  T
   9   -302.7109835 -0.546311E-07  0.352E-04    2.11      22.7  T
     SCC iter.                  ...        0 min,  1.534 sec
     gradient                   ...        0 min,  0.322 sec
 * total energy  :  -299.5140452 Eh     change       -0.1065471E+00 Eh
   gradient norm :     0.2323145 Eh/α   predicted    -0.9425057E-01 ( -11.54%)
   displ. norm   :     0.7439312 α      lambda       -0.1089924E+00
   maximum displ.:     0.1866163 α      in ANC's #285, #37, #55, ...

........................................................................
.............................. CYCLE   10 ..............................
........................................................................

 iter      E             dE          RMSdq      gap      omega  full diag
   1   -302.7769436 -0.302777E+03  0.204E-01    1.94       0.0  T
   2   -302.7782113 -0.126769E-02  0.124E-01    2.06       1.0  T
   3   -302.7785224 -0.311109E-03  0.716E-02    1.97       1.0  T
   4   -302.7788328 -0.310410E-03  0.227E-02    2.02       1.0  T
   5   -302.7788941 -0.612165E-04  0.812E-03    2.00       1.0  T
   6   -302.7789004 -0.629297E-05  0.364E-03    2.00       2.2  T
   7   -302.7789005 -0.163159E-06  0.205E-03    2.00       3.9  T
   8   -302.7789009 -0.389888E-06  0.954E-04    2.00       8.4  T
   9   -302.7789009 -0.348950E-07  0.450E-04    2.00      17.7  T
     SCC iter.                  ...        0 min,  1.247 sec
     gradient                   ...        0 min,  0.299 sec
 * total energy  :  -299.6082338 Eh     change       -0.9418860E-01 Eh
   gradient norm :     0.2000301 Eh/α   predicted    -0.8465631E-01 ( -10.12%)
   displ. norm   :     0.7610693 α      lambda       -0.9507143E-01
   maximum displ.:     0.1870781 α      in ANC's #285, #16, #37, ...

........................................................................
.............................. CYCLE   11 ..............................
........................................................................

 iter      E             dE          RMSdq      gap      omega  full diag
   1   -302.8374001 -0.302837E+03  0.214E-01    1.84       0.0  T
   2   -302.8382779 -0.877788E-03  0.130E-01    1.91       1.0  T
   3   -302.8382886 -0.107259E-04  0.789E-02    1.84       1.0  T
   4   -302.8387967 -0.508161E-03  0.211E-02    1.88       1.0  T
   5   -302.8388567 -0.599524E-04  0.651E-03    1.87       1.2  T
   6   -302.8388595 -0.282090E-05  0.312E-03    1.87       2.6  T
   7   -302.8388597 -0.155932E-06  0.134E-03    1.87       6.0  T
   8   -302.8388598 -0.154723E-06  0.745E-04    1.87      10.7  T
   9   -302.8388598 -0.198559E-07  0.349E-04    1.87      22.8  T
     SCC iter.                  ...        0 min,  0.969 sec
     gradient                   ...        0 min,  0.355 sec
 * total energy  :  -299.6887348 Eh     change       -0.8050096E-01 Eh
   gradient norm :     0.1642155 Eh/α   predicted    -0.7506987E-01 (  -6.75%)
   displ. norm   :     0.7516574 α      lambda       -0.7272443E-01
   maximum displ.:     0.1754051 α      in ANC's #16, #285, #37, ...

........................................................................
.............................. CYCLE   12 ..............................
........................................................................

 iter      E             dE          RMSdq      gap      omega  full diag
   1   -302.8890421 -0.302889E+03  0.214E-01    1.72       0.0  T
   2   -302.8899430 -0.900830E-03  0.128E-01    1.76       1.0  T
   3   -302.8900105 -0.675519E-04  0.759E-02    1.73       1.0  T
   4   -302.8904240 -0.413512E-03  0.192E-02    1.76       1.0  T
   5   -302.8904769 -0.528442E-04  0.585E-03    1.75       1.4  T
   6   -302.8904793 -0.242879E-05  0.256E-03    1.75       3.1  T
   7   -302.8904794 -0.108603E-06  0.109E-03    1.75       7.4  T
   8   -302.8904795 -0.788636E-07  0.583E-04    1.75      13.7  T
   9   -302.8904795 -0.123669E-07  0.318E-04    1.75      25.1  T
     SCC iter.                  ...        0 min,  1.235 sec
     gradient                   ...        0 min,  0.297 sec
 * total energy  :  -299.7489940 Eh     change       -0.6025919E-01 Eh
   gradient norm :     0.1381542 Eh/α   predicted    -0.5690645E-01 (  -5.56%)
   displ. norm   :     0.7531706 α      lambda       -0.5348389E-01
   maximum displ.:     0.2274207 α      in ANC's #16, #13, #37, ...

........................................................................
.............................. CYCLE   13 ..............................
........................................................................

 iter      E             dE          RMSdq      gap      omega  full diag
   1   -302.9303941 -0.302930E+03  0.188E-01    1.62       0.0  T
   2   -302.9311069 -0.712849E-03  0.115E-01    1.65       1.0  T
   3   -302.9311663 -0.593909E-04  0.657E-02    1.63       1.0  T
   4   -302.9314858 -0.319527E-03  0.180E-02    1.65       1.0  T
   5   -302.9315315 -0.456649E-04  0.509E-03    1.64       1.6  T
   6   -302.9315327 -0.118548E-05  0.231E-03    1.65       3.5  T
   7   -302.9315328 -0.681793E-07  0.108E-03    1.65       7.4  T
   8   -302.9315328 -0.709925E-07  0.602E-04    1.65      13.3  T
   9   -302.9315329 -0.191602E-07  0.295E-04    1.65      27.1  T
     SCC iter.                  ...        0 min,  1.111 sec
     gradient                   ...        0 min,  0.356 sec
 * total energy  :  -299.7947631 Eh     change       -0.4576917E-01 Eh
   gradient norm :     0.1299302 Eh/α   predicted    -0.4191177E-01 (  -8.43%)
   displ. norm   :     0.7696416 α      lambda       -0.4536830E-01
   maximum displ.:     0.2633473 α      in ANC's #16, #13, #37, ...

........................................................................
.............................. CYCLE   14 ..............................
........................................................................

 iter      E             dE          RMSdq      gap      omega  full diag
   1   -302.9811479 -0.302981E+03  0.169E-01    1.52       0.0  T
   2   -302.9817092 -0.561248E-03  0.110E-01    1.57       1.0  T
   3   -302.9818963 -0.187164E-03  0.633E-02    1.54       1.0  T
   4   -302.9822161 -0.319784E-03  0.154E-02    1.56       1.0  T
   5   -302.9822447 -0.285669E-04  0.458E-03    1.55       1.7  T
   6   -302.9822453 -0.592776E-06  0.206E-03    1.55       3.9  T
   7   -302.9822453 -0.643420E-07  0.957E-04    1.55       8.3  T
   8   -302.9822454 -0.492575E-07  0.543E-04    1.55      14.7  T
     SCC iter.                  ...        0 min,  0.896 sec
     gradient                   ...        0 min,  0.288 sec
 * total energy  :  -299.8338358 Eh     change       -0.3907265E-01 Eh
   gradient norm :     0.1238775 Eh/α   predicted    -0.3612105E-01 (  -7.55%)
   displ. norm   :     0.7813572 α      lambda       -0.4001398E-01
   maximum displ.:     0.2989655 α      in ANC's #16, #13, #44, ...

........................................................................
.............................. CYCLE   15 ..............................
........................................................................

 iter      E             dE          RMSdq      gap      omega  full diag
   1   -303.0162583 -0.303016E+03  0.158E-01    1.44       0.0  T
   2   -303.0168237 -0.565326E-03  0.103E-01    1.47       1.0  T
   3   -303.0170557 -0.232093E-03  0.597E-02    1.44       1.0  T
   4   -303.0173359 -0.280129E-03  0.151E-02    1.47       1.0  T
   5   -303.0173573 -0.214246E-04  0.452E-03    1.46       1.8  T
   6   -303.0173580 -0.731212E-06  0.214E-03    1.46       3.7  T
   7   -303.0173581 -0.106154E-06  0.980E-04    1.46       8.1  T
   8   -303.0173582 -0.288956E-07  0.574E-04    1.46      13.9  T
     SCC iter.                  ...        0 min,  1.047 sec
     gradient                   ...        0 min,  0.373 sec
 * total energy  :  -299.8686797 Eh     change       -0.3484395E-01 Eh
   gradient norm :     0.1206421 Eh/α   predicted    -0.3222169E-01 (  -7.53%)
   displ. norm   :     0.7835823 α      lambda       -0.3775319E-01
   maximum displ.:     0.3048162 α      in ANC's #16, #13, #56, ...

........................................................................
.............................. CYCLE   16 ..............................
........................................................................

 iter      E             dE          RMSdq      gap      omega  full diag
   1   -303.0774543 -0.303077E+03  0.163E-01    1.33       0.0  T
   2   -303.0781081 -0.653850E-03  0.107E-01    1.38       1.0  T
   3   -303.0785205 -0.412411E-03  0.633E-02    1.34       1.0  T
   4   -303.0788275 -0.307006E-03  0.147E-02    1.37       1.0  T
   5   -303.0788471 -0.195383E-04  0.445E-03    1.36       1.8  T
   6   -303.0788477 -0.654566E-06  0.221E-03    1.36       3.6  T
   7   -303.0788479 -0.139966E-06  0.990E-04    1.36       8.1  T
   8   -303.0788479 -0.584341E-07  0.532E-04    1.36      15.0  T
     SCC iter.                  ...        0 min,  1.214 sec
     gradient                   ...        0 min,  0.316 sec
 * total energy  :  -299.9003471 Eh     change       -0.3166734E-01 Eh
   gradient norm :     0.1239312 Eh/α   predicted    -0.3046694E-01 (  -3.79%)
   displ. norm   :     0.7905979 α      lambda       -0.3591408E-01
   maximum displ.:     0.3324630 α      in ANC's #16, #13, #45, ...

........................................................................
.............................. CYCLE   17 ..............................
........................................................................

 iter      E             dE          RMSdq      gap      omega  full diag
   1   -303.0944095 -0.303094E+03  0.176E-01    1.23       0.0  T
   2   -303.0951878 -0.778305E-03  0.107E-01    1.27       1.0  T
   3   -303.0954177 -0.229922E-03  0.680E-02    1.23       1.0  T
   4   -303.0958328 -0.415170E-03  0.185E-02    1.26       1.0  T
   5   -303.0958673 -0.344452E-04  0.468E-03    1.25       1.7  T
   6   -303.0958680 -0.711408E-06  0.245E-03    1.25       3.3  T
   7   -303.0958682 -0.215400E-06  0.116E-03    1.25       6.9  T
   8   -303.0958683 -0.888645E-07  0.590E-04    1.25      13.5  T
   9   -303.0958683 -0.124978E-07  0.174E-04    1.25      45.8  T
     SCC iter.                  ...        0 min,  1.361 sec
     gradient                   ...        0 min,  0.346 sec
 * total energy  :  -299.9304141 Eh     change       -0.3006699E-01 Eh
   gradient norm :     0.1341429 Eh/α   predicted    -0.2918107E-01 (  -2.95%)
   displ. norm   :     0.7490997 α      lambda       -0.3575354E-01
   maximum displ.:     0.3064786 α      in ANC's #16, #13, #56, ...

........................................................................
.............................. CYCLE   18 ..............................
........................................................................

 iter      E             dE          RMSdq      gap      omega  full diag
   1   -303.1348175 -0.303135E+03  0.177E-01    1.11       0.0  T
   2   -303.1353756 -0.558151E-03  0.110E-01    1.15       1.0  T
   3   -303.1358225 -0.446813E-03  0.731E-02    1.10       1.0  T
   4   -303.1362920 -0.469515E-03  0.151E-02    1.13       1.0  T
   5   -303.1363094 -0.173899E-04  0.457E-03    1.12       1.7  T
   6   -303.1363100 -0.677529E-06  0.211E-03    1.12       3.8  T
   7   -303.1363102 -0.159714E-06  0.977E-04    1.12       8.2  T
   8   -303.1363102 -0.269699E-07  0.526E-04    1.12      15.2  T
     SCC iter.                  ...        0 min,  1.145 sec
     gradient                   ...        0 min,  0.357 sec
 * total energy  :  -299.9607640 Eh     change       -0.3034997E-01 Eh
   gradient norm :     0.1292421 Eh/α   predicted    -0.2790836E-01 (  -8.04%)
   displ. norm   :     0.7410560 α      lambda       -0.3662934E-01
   maximum displ.:     0.2976219 α      in ANC's #16, #56, #13, ...

........................................................................
.............................. CYCLE   19 ..............................
........................................................................

 iter      E             dE          RMSdq      gap      omega  full diag
   1   -303.1698446 -0.303170E+03  0.190E-01    0.99       0.0  T
   2   -303.1704339 -0.589294E-03  0.115E-01    1.02       1.0  T
   3   -303.1709145 -0.480566E-03  0.807E-02    0.99       1.0  T
   4   -303.1714564 -0.541917E-03  0.147E-02    1.01       1.0  T
   5   -303.1714705 -0.141127E-04  0.462E-03    1.00       1.7  T
   6   -303.1714713 -0.740052E-06  0.217E-03    1.00       3.7  T
   7   -303.1714714 -0.131409E-06  0.870E-04    1.00       9.2  T
   8   -303.1714714 -0.235735E-07  0.449E-04    1.00      17.8  T
     SCC iter.                  ...        0 min,  0.911 sec
     gradient                   ...        0 min,  0.246 sec
 * total energy  :  -299.9897990 Eh     change       -0.2903495E-01 Eh
   gradient norm :     0.1039981 Eh/α   predicted    -0.2837251E-01 (  -2.28%)
   displ. norm   :     0.7157548 α      lambda       -0.2987963E-01
   maximum displ.:     0.3240949 α      in ANC's #16, #13, #461, ...

........................................................................
.............................. CYCLE   20 ..............................
........................................................................

 iter      E             dE          RMSdq      gap      omega  full diag
   1   -303.1844129 -0.303184E+03  0.175E-01    0.90       0.0  T
   2   -303.1853352 -0.922293E-03  0.103E-01    0.86       1.0  T
   3   -303.1855624 -0.227119E-03  0.711E-02    0.88       1.0  T
   4   -303.1858832 -0.320810E-03  0.200E-02    0.86       1.0  T
   5   -303.1859212 -0.380463E-04  0.563E-03    0.87       1.4  T
   6   -303.1859232 -0.203333E-05  0.262E-03    0.87       3.0  T
   7   -303.1859235 -0.240259E-06  0.116E-03    0.87       6.9  T
   8   -303.1859235 -0.556130E-07  0.576E-04    0.87      13.8  T
   9   -303.1859235 -0.108847E-07  0.192E-04    0.87      41.6  T
     SCC iter.                  ...        0 min,  1.380 sec
     gradient                   ...        0 min,  0.321 sec
 * total energy  :  -300.0088783 Eh     change       -0.1907931E-01 Eh
   gradient norm :     0.1174786 Eh/α   predicted    -0.2259362E-01 (  18.42%)
   displ. norm   :     0.6876465 α      lambda       -0.2593470E-01
   maximum displ.:     0.2840680 α      in ANC's #16, #45, #13, ...
 * RMSD in coord.:     0.8869143 α      energy gain  -0.4398374E+01 Eh

generating ANC from model Hessian ...
Using Lindh-Hessian (1995)
 Shifting diagonal of input Hessian by    9.9690224635448094E-003
 Lowest  eigenvalues of input Hessian
    0.000000    0.000000    0.000000    0.000000    0.000000    0.000000
    0.010000    0.010092    0.010194    0.010383    0.010446    0.010575
    0.010773    0.010925    0.010959    0.011608    0.011889    0.012021
 Highest eigenvalues
    2.504036    2.516289    2.526347    2.527357    2.538733    2.544136


........................................................................
.............................. CYCLE   21 ..............................
........................................................................

 iter      E             dE          RMSdq      gap      omega  full diag
   1   -303.1986437 -0.303199E+03  0.170E-01    0.78       0.0  T
   2   -303.2004215 -0.177783E-02  0.939E-02    0.78       1.0  T
   3   -303.2005617 -0.140162E-03  0.558E-02    0.78       1.0  T
   4   -303.2005450  0.166353E-04  0.294E-02    0.77       1.0  T
   5   -303.2006527 -0.107649E-03  0.826E-03    0.78       1.0  T
   6   -303.2006587 -0.605795E-05  0.359E-03    0.78       2.2  T
   7   -303.2006593 -0.539047E-06  0.167E-03    0.78       4.8  T
   8   -303.2006594 -0.721300E-07  0.992E-04    0.78       8.0  T
   9   -303.2006594 -0.537971E-07  0.296E-04    0.78      27.0  T
     SCC iter.                  ...        0 min,  1.085 sec
     gradient                   ...        0 min,  0.300 sec
 * total energy  :  -300.0216533 Eh     change       -0.1277503E-01 Eh
   gradient norm :     0.1348981 Eh/α   predicted     0.0000000E+00 (-100.00%)
   displ. norm   :     0.5121167 α      lambda       -0.3090619E-01
   maximum displ.:     0.1954985 α      in ANC's #23, #10, #14, ...

........................................................................
.............................. CYCLE   22 ..............................
........................................................................

 iter      E             dE          RMSdq      gap      omega  full diag
   1   -303.2397704 -0.303240E+03  0.162E-01    0.75       0.0  T
   2   -303.2408403 -0.106985E-02  0.929E-02    0.83       1.0  T
   3   -303.2411406 -0.300350E-03  0.563E-02    0.77       1.0  T
   4   -303.2411925 -0.518968E-04  0.210E-02    0.80       1.0  T
   5   -303.2412642 -0.717132E-04  0.729E-03    0.79       1.1  T
   6   -303.2412709 -0.667728E-05  0.271E-03    0.79       2.9  T
   7   -303.2412713 -0.337489E-06  0.124E-03    0.79       6.4  T
   8   -303.2412713 -0.547928E-07  0.573E-04    0.79      13.9  T
   9   -303.2412713 -0.751891E-08  0.222E-04    0.79      36.0  T
     SCC iter.                  ...        0 min,  1.216 sec
     gradient                   ...        0 min,  0.268 sec
 * total energy  :  -300.0464845 Eh     change       -0.2483121E-01 Eh
   gradient norm :     0.0649312 Eh/α   predicted    -0.1950588E-01 ( -21.45%)
   displ. norm   :     0.7007832 α      lambda       -0.2493140E-01
   maximum displ.:     0.2625040 α      in ANC's #23, #10, #14, ...

........................................................................
.............................. CYCLE   23 ..............................
........................................................................

 iter      E             dE          RMSdq      gap      omega  full diag
   1   -303.2741205 -0.303274E+03  0.204E-01    0.81       0.0  T
   2   -303.2750145 -0.894000E-03  0.123E-01    0.90       1.0  T
   3   -303.2757646 -0.750170E-03  0.789E-02    0.85       1.0  T
   4   -303.2760116 -0.247029E-03  0.296E-02    0.87       1.0  T
   5   -303.2761558 -0.144178E-03  0.825E-03    0.87       1.0  T
   6   -303.2761623 -0.645523E-05  0.293E-03    0.87       2.7  T
   7   -303.2761626 -0.332662E-06  0.141E-03    0.87       5.7  T
   8   -303.2761627 -0.772552E-07  0.655E-04    0.87      12.2  T
   9   -303.2761627 -0.126344E-07  0.299E-04    0.87      26.7  T
     SCC iter.                  ...        0 min,  0.960 sec
     gradient                   ...        0 min,  0.372 sec
 * total energy  :  -300.0661137 Eh     change       -0.1962915E-01 Eh
   gradient norm :     0.0416556 Eh/α   predicted    -0.1858757E-01 (  -5.31%)
   displ. norm   :     0.7510336 α      lambda       -0.1681018E-01
   maximum displ.:     0.2901897 α      in ANC's #23, #10, #14, ...

........................................................................
.............................. CYCLE   24 ..............................
........................................................................

 iter      E             dE          RMSdq      gap      omega  full diag
   1   -303.2919731 -0.303292E+03  0.164E-01    0.89       0.0  T
   2   -303.2922749 -0.301882E-03  0.101E-01    0.93       1.0  T
   3   -303.2924589 -0.183996E-03  0.685E-02    0.91       1.0  T
   4   -303.2927824 -0.323505E-03  0.209E-02    0.91       1.0  T
   5   -303.2928545 -0.720360E-04  0.597E-03    0.92       1.3  T
   6   -303.2928570 -0.250419E-05  0.264E-03    0.92       3.0  T
   7   -303.2928573 -0.275518E-06  0.144E-03    0.92       5.5  T
   8   -303.2928573 -0.747554E-07  0.694E-04    0.92      11.5  T
   9   -303.2928574 -0.231854E-07  0.343E-04    0.92      23.3  T
     SCC iter.                  ...        0 min,  1.129 sec
     gradient                   ...        0 min,  0.279 sec
 * total energy  :  -300.0807340 Eh     change       -0.1462034E-01 Eh
   gradient norm :     0.0390716 Eh/α   predicted    -0.1314601E-01 ( -10.08%)
   displ. norm   :     0.8210064 α      lambda       -0.1499681E-01
   maximum displ.:     0.3020223 α      in ANC's #23, #10, #14, ...

........................................................................
.............................. CYCLE   25 ..............................
........................................................................

 iter      E             dE          RMSdq      gap      omega  full diag
   1   -303.3069669 -0.303307E+03  0.143E-01    0.94       0.0  T
   2   -303.3071371 -0.170228E-03  0.850E-02    0.96       1.0  T
   3   -303.3068973  0.239816E-03  0.508E-02    0.95       1.0  T
   4   -303.3072081 -0.310859E-03  0.140E-02    0.96       1.0  T
   5   -303.3072399 -0.317720E-04  0.464E-03    0.96       1.7  T
   6   -303.3072412 -0.133379E-05  0.254E-03    0.96       3.1  T
   7   -303.3072414 -0.201784E-06  0.126E-03    0.96       6.3  T
   8   -303.3072415 -0.726421E-07  0.669E-04    0.96      11.9  T
   9   -303.3072415 -0.223138E-07  0.288E-04    0.96      27.7  T
     SCC iter.                  ...        0 min,  1.060 sec
     gradient                   ...        0 min,  0.300 sec
 * total energy  :  -300.0938318 Eh     change       -0.1309775E-01 Eh
   gradient norm :     0.0329288 Eh/α   predicted    -0.1255276E-01 (  -4.16%)
   displ. norm   :     0.8202238 α      lambda       -0.1249879E-01
   maximum displ.:     0.2811411 α      in ANC's #23, #10, #14, ...

........................................................................
.............................. CYCLE   26 ..............................
........................................................................

 iter      E             dE          RMSdq      gap      omega  full diag
   1   -303.3227984 -0.303323E+03  0.128E-01    0.98       0.0  T
   2   -303.3228845 -0.861216E-04  0.740E-02    0.99       1.0  T
   3   -303.3228743  0.101856E-04  0.158E-02    0.99       1.0  T
   4   -303.3228920 -0.176816E-04  0.644E-03    0.99       1.2  T
   5   -303.3228967 -0.469510E-05  0.329E-03    0.99       2.4  T
   6   -303.3228973 -0.582117E-06  0.184E-03    0.99       4.3  T
   7   -303.3228975 -0.205515E-06  0.745E-04    1.00      10.7  T
   8   -303.3228975 -0.188261E-07  0.440E-04    1.00      18.1  T
     SCC iter.                  ...        0 min,  1.015 sec
     gradient                   ...        0 min,  0.285 sec
 * total energy  :  -300.1047999 Eh     change       -0.1096811E-01 Eh
   gradient norm :     0.0298771 Eh/α   predicted    -0.1045379E-01 (  -4.69%)
   displ. norm   :     0.8369410 α      lambda       -0.1075899E-01
   maximum displ.:     0.3029418 α      in ANC's #3, #10, #23, ...

........................................................................
.............................. CYCLE   27 ..............................
........................................................................

 iter      E             dE          RMSdq      gap      omega  full diag
   1   -303.3400299 -0.303340E+03  0.117E-01    1.03       0.0  T
   2   -303.3401059 -0.760383E-04  0.667E-02    1.03       1.0  T
   3   -303.3400588  0.470984E-04  0.247E-02    1.04       1.0  T
   4   -303.3401199 -0.610989E-04  0.670E-03    1.04       1.2  T
   5   -303.3401261 -0.623539E-05  0.323E-03    1.04       2.5  T
   6   -303.3401268 -0.646100E-06  0.175E-03    1.04       4.6  T
   7   -303.3401269 -0.145917E-06  0.735E-04    1.04      10.9  T
   8   -303.3401270 -0.256446E-07  0.452E-04    1.04      17.7  T
     SCC iter.                  ...        0 min,  0.979 sec
     gradient                   ...        0 min,  0.454 sec
 * total energy  :  -300.1145461 Eh     change       -0.9746211E-02 Eh
   gradient norm :     0.0266535 Eh/α   predicted    -0.9147675E-02 (  -6.14%)
   displ. norm   :     0.8870042 α      lambda       -0.1014594E-01
   maximum displ.:     0.4137108 α      in ANC's #3, #10, #14, ...

........................................................................
.............................. CYCLE   28 ..............................
........................................................................

 iter      E             dE          RMSdq      gap      omega  full diag
   1   -303.3570396 -0.303357E+03  0.108E-01    1.07       0.0  T
   2   -303.3571240 -0.844679E-04  0.609E-02    1.07       1.0  T
   3   -303.3570602  0.638538E-04  0.293E-02    1.08       1.0  T
   4   -303.3571464 -0.862039E-04  0.745E-03    1.08       1.1  T
   5   -303.3571551 -0.874970E-05  0.304E-03    1.08       2.6  T
   6   -303.3571557 -0.508097E-06  0.163E-03    1.08       4.9  T
   7   -303.3571558 -0.103763E-06  0.733E-04    1.08      10.9  T
   8   -303.3571558 -0.258983E-07  0.431E-04    1.08      18.5  T
     SCC iter.                  ...        0 min,  0.914 sec
     gradient                   ...        0 min,  0.269 sec
 * total energy  :  -300.1231631 Eh     change       -0.8617017E-02 Eh
   gradient norm :     0.0234484 Eh/α   predicted    -0.9064264E-02 (   5.19%)
   displ. norm   :     0.7618729 α      lambda       -0.6528147E-02
   maximum displ.:     0.2876593 α      in ANC's #3, #10, #14, ...

........................................................................
.............................. CYCLE   29 ..............................
........................................................................

 iter      E             dE          RMSdq      gap      omega  full diag
   1   -303.3673033 -0.303367E+03  0.843E-02    1.10       0.0  T
   2   -303.3673601 -0.567770E-04  0.482E-02    1.11       1.0  T
   3   -303.3673265  0.336090E-04  0.213E-02    1.11       1.0  T
   4   -303.3673707 -0.442358E-04  0.585E-03    1.11       1.4  T
   5   -303.3673762 -0.541902E-05  0.226E-03    1.11       3.5  T
   6   -303.3673765 -0.357671E-06  0.118E-03    1.11       6.8  T
   7   -303.3673766 -0.512936E-07  0.553E-04    1.11      14.4  T
   8   -303.3673766 -0.142895E-07  0.302E-04    1.11      26.4  T
     SCC iter.                  ...        0 min,  1.026 sec
     gradient                   ...        0 min,  0.306 sec
 * total energy  :  -300.1292996 Eh     change       -0.6136514E-02 Eh
   gradient norm :     0.0190048 Eh/α   predicted    -0.5158715E-02 ( -15.93%)
   displ. norm   :     0.9369214 α      lambda       -0.7986957E-02
   maximum displ.:     0.3888229 α      in ANC's #3, #14, #10, ...

........................................................................
.............................. CYCLE   30 ..............................
........................................................................

 iter      E             dE          RMSdq      gap      omega  full diag
   1   -303.3783922 -0.303378E+03  0.953E-02    1.12       0.0  T
   2   -303.3784670 -0.748505E-04  0.547E-02    1.13       1.0  T
   3   -303.3784159  0.511618E-04  0.247E-02    1.13       1.0  T
   4   -303.3784803 -0.644509E-04  0.730E-03    1.13       1.1  T
   5   -303.3784890 -0.870652E-05  0.250E-03    1.13       3.2  T
   6   -303.3784893 -0.319297E-06  0.135E-03    1.13       5.9  T
   7   -303.3784894 -0.646940E-07  0.606E-04    1.13      13.2  T
   8   -303.3784894 -0.167523E-07  0.336E-04    1.13      23.8  T
     SCC iter.                  ...        0 min,  0.903 sec
     gradient                   ...        0 min,  0.329 sec
 * total energy  :  -300.1351714 Eh     change       -0.5871767E-02 Eh
   gradient norm :     0.0166383 Eh/α   predicted    -0.7499041E-02 (  27.71%)
   displ. norm   :     0.7293644 α      lambda       -0.4242223E-02
   maximum displ.:     0.2803136 α      in ANC's #10, #14, #1, ...

........................................................................
.............................. CYCLE   31 ..............................
........................................................................

 iter      E             dE          RMSdq      gap      omega  full diag
   1   -303.3795272 -0.303380E+03  0.755E-02    1.13       0.0  T
   2   -303.3795570 -0.298449E-04  0.440E-02    1.14       1.0  T
   3   -303.3795148  0.422516E-04  0.191E-02    1.14       1.0  T
   4   -303.3795651 -0.503164E-04  0.523E-03    1.14       1.5  T
   5   -303.3795693 -0.415240E-05  0.179E-03    1.14       4.5  T
   6   -303.3795694 -0.106111E-06  0.948E-04    1.14       8.4  T
   7   -303.3795694 -0.337523E-07  0.408E-04    1.14      19.6  T
     SCC iter.                  ...        0 min,  0.879 sec
     gradient                   ...        0 min,  0.279 sec
 * total energy  :  -300.1393822 Eh     change       -0.4210794E-02 Eh
   gradient norm :     0.0152491 Eh/α   predicted    -0.3249487E-02 ( -22.83%)
   displ. norm   :     0.8948658 α      lambda       -0.5176042E-02
   maximum displ.:     0.3456176 α      in ANC's #14, #10, #1, ...

........................................................................
.............................. CYCLE   32 ..............................
........................................................................

 iter      E             dE          RMSdq      gap      omega  full diag
   1   -303.3938870 -0.303394E+03  0.839E-02    1.13       0.0  T
   2   -303.3939486 -0.615961E-04  0.496E-02    1.15       1.0  T
   3   -303.3939023  0.462725E-04  0.211E-02    1.14       1.0  T
   4   -303.3939566 -0.542790E-04  0.712E-03    1.15       1.1  T
   5   -303.3939642 -0.756657E-05  0.234E-03    1.15       3.4  T
   6   -303.3939644 -0.279266E-06  0.130E-03    1.15       6.1  T
   7   -303.3939645 -0.605513E-07  0.660E-04    1.15      12.1  T
   8   -303.3939645 -0.193450E-07  0.351E-04    1.15      22.7  T
     SCC iter.                  ...        0 min,  0.984 sec
     gradient                   ...        0 min,  0.281 sec
 * total energy  :  -300.1437694 Eh     change       -0.4387154E-02 Eh
   gradient norm :     0.0265189 Eh/α   predicted    -0.4660487E-02 (   6.23%)
   displ. norm   :     0.8597695 α      lambda       -0.4644027E-02
   maximum displ.:     0.3275652 α      in ANC's #10, #1, #14, ...

........................................................................
.............................. CYCLE   33 ..............................
........................................................................

 iter      E             dE          RMSdq      gap      omega  full diag
   1   -303.3914251 -0.303391E+03  0.892E-02    1.14       0.0  T
   2   -303.3914719 -0.467812E-04  0.522E-02    1.14       1.0  T
   3   -303.3914370  0.349018E-04  0.187E-02    1.15       1.0  T
   4   -303.3914789 -0.418873E-04  0.572E-03    1.15       1.4  T
   5   -303.3914832 -0.428284E-05  0.259E-03    1.14       3.1  T
   6   -303.3914838 -0.552803E-06  0.112E-03    1.14       7.1  T
   7   -303.3914838 -0.290408E-07  0.533E-04    1.14      15.0  T
   8   -303.3914838 -0.940406E-08  0.247E-04    1.14      32.3  T
     SCC iter.                  ...        0 min,  1.167 sec
     gradient                   ...        0 min,  0.291 sec
 * total energy  :  -300.1476726 Eh     change       -0.3903265E-02 Eh
   gradient norm :     0.0199981 Eh/α   predicted    -0.4038470E-02 (   3.46%)
   displ. norm   :     0.8454962 α      lambda       -0.4231721E-02
   maximum displ.:     0.3890046 α      in ANC's #12, #1, #14, ...

........................................................................
.............................. CYCLE   34 ..............................
........................................................................

 iter      E             dE          RMSdq      gap      omega  full diag
   1   -303.3947077 -0.303395E+03  0.747E-02    1.15       0.0  T
   2   -303.3947391 -0.313709E-04  0.438E-02    1.16       1.0  T
   3   -303.3947123  0.268043E-04  0.154E-02    1.15       1.0  T
   4   -303.3947431 -0.308025E-04  0.514E-03    1.16       1.6  T
   5   -303.3947469 -0.385746E-05  0.193E-03    1.16       4.1  T
   6   -303.3947471 -0.143566E-06  0.108E-03    1.16       7.4  T
   7   -303.3947471 -0.457402E-07  0.491E-04    1.16      16.2  T
   8   -303.3947471 -0.112400E-07  0.263E-04    1.16      30.3  T
     SCC iter.                  ...        0 min,  1.116 sec
     gradient                   ...        0 min,  0.305 sec
 * total energy  :  -300.1518235 Eh     change       -0.4150894E-02 Eh
   gradient norm :     0.0175355 Eh/α   predicted    -0.3628419E-02 ( -12.59%)
   displ. norm   :     0.9004722 α      lambda       -0.5483010E-02
   maximum displ.:     0.5455564 α      in ANC's #12, #1, #14, ...

........................................................................
.............................. CYCLE   35 ..............................
........................................................................

 iter      E             dE          RMSdq      gap      omega  full diag
   1   -303.4099750 -0.303410E+03  0.740E-02    1.16       0.0  T
   2   -303.4100163 -0.412701E-04  0.438E-02    1.18       1.0  T
   3   -303.4100017  0.146401E-04  0.138E-02    1.17       1.0  T
   4   -303.4100217 -0.200873E-04  0.479E-03    1.18       1.7  T
   5   -303.4100243 -0.252114E-05  0.233E-03    1.18       3.4  T
   6   -303.4100246 -0.322016E-06  0.134E-03    1.18       5.9  T
   7   -303.4100247 -0.925563E-07  0.665E-04    1.18      12.0  T
   8   -303.4100247 -0.205253E-07  0.354E-04    1.18      22.6  T
     SCC iter.                  ...        0 min,  1.203 sec
     gradient                   ...        0 min,  0.314 sec
 * total energy  :  -300.1564615 Eh     change       -0.4637991E-02 Eh
   gradient norm :     0.0291222 Eh/α   predicted    -0.4964460E-02 (   7.04%)
   displ. norm   :     0.8644957 α      lambda       -0.5281455E-02
   maximum displ.:     0.6204883 α      in ANC's #12, #1, #14, ...

........................................................................
.............................. CYCLE   36 ..............................
........................................................................

 iter      E             dE          RMSdq      gap      omega  full diag
   1   -303.4180990 -0.303418E+03  0.625E-02    1.19       0.0  T
   2   -303.4181210 -0.220653E-04  0.369E-02    1.20       1.0  T
   3   -303.4181127  0.839347E-05  0.104E-02    1.19       1.0  T
   4   -303.4181246 -0.119897E-04  0.369E-03    1.20       2.2  T
   5   -303.4181259 -0.129937E-05  0.204E-03    1.20       3.9  T
   6   -303.4181262 -0.242250E-06  0.116E-03    1.20       6.9  T
   7   -303.4181263 -0.658998E-07  0.545E-04    1.20      14.6  T
   8   -303.4181263 -0.140252E-07  0.286E-04    1.20      27.9  T
     SCC iter.                  ...        0 min,  1.004 sec
     gradient                   ...        0 min,  0.358 sec
 * total energy  :  -300.1585583 Eh     change       -0.2096788E-02 Eh
   gradient norm :     0.0459490 Eh/α   predicted    -0.4614285E-02 ( 120.06%)
   displ. norm   :     0.4071999 α      lambda       -0.2168118E-02
   maximum displ.:     0.2016172 α      in ANC's #1, #10, #14, ...

........................................................................
.............................. CYCLE   37 ..............................
........................................................................

 iter      E             dE          RMSdq      gap      omega  full diag
   1   -303.3985280 -0.303399E+03  0.545E-02    1.19       0.0  T
   2   -303.3985668 -0.388244E-04  0.323E-02    1.19       1.0  T
   3   -303.3985541  0.127271E-04  0.151E-02    1.20       1.0  T
   4   -303.3985727 -0.186422E-04  0.472E-03    1.19       1.7  T
   5   -303.3985757 -0.299473E-05  0.204E-03    1.19       3.9  T
   6   -303.3985762 -0.454699E-06  0.823E-04    1.19       9.7  T
   7   -303.3985762 -0.219764E-07  0.470E-04    1.19      17.0  T
     SCC iter.                  ...        0 min,  0.827 sec
     gradient                   ...        0 min,  0.296 sec
 * total energy  :  -300.1598184 Eh     change       -0.1260064E-02 Eh
   gradient norm :     0.0235803 Eh/α   predicted    -0.1263831E-02 (   0.30%)
   displ. norm   :     0.5771287 α      lambda       -0.3773656E-02
   maximum displ.:     0.1948311 α      in ANC's #23, #14, #11, ...

........................................................................
.............................. CYCLE   38 ..............................
........................................................................

 iter      E             dE          RMSdq      gap      omega  full diag
   1   -303.4173378 -0.303417E+03  0.108E-01    1.21       0.0  T
   2   -303.4175042 -0.166428E-03  0.632E-02    1.20       1.0  T
   3   -303.4175023  0.195917E-05  0.203E-02    1.21       1.0  T
   4   -303.4175191 -0.168287E-04  0.477E-03    1.21       1.7  T
   5   -303.4175206 -0.152245E-05  0.225E-03    1.21       3.5  T
   6   -303.4175208 -0.163826E-06  0.118E-03    1.21       6.8  T
   7   -303.4175209 -0.679390E-07  0.495E-04    1.21      16.1  T
   8   -303.4175209 -0.106178E-08  0.286E-04    1.21      27.9  T
     SCC iter.                  ...        0 min,  0.959 sec
     gradient                   ...        0 min,  0.337 sec
 * total energy  :  -300.1604169 Eh     change       -0.5985095E-03 Eh
   gradient norm :     0.0420315 Eh/α   predicted    -0.2515293E-02 ( 320.26%)
   displ. norm   :     0.2776190 α      lambda       -0.2263671E-02
   maximum displ.:     0.1187232 α      in ANC's #1, #3, #10, ...

........................................................................
.............................. CYCLE   39 ..............................
........................................................................

 iter      E             dE          RMSdq      gap      omega  full diag
   1   -303.4142636 -0.303414E+03  0.413E-02    1.20       0.0  T
   2   -303.4143220 -0.584423E-04  0.240E-02    1.21       1.0  T
   3   -303.4143239 -0.191177E-05  0.117E-02    1.21       1.0  T
   4   -303.4143249 -0.986656E-06  0.427E-03    1.21       1.9  T
   5   -303.4143270 -0.210024E-05  0.166E-03    1.21       4.8  T
   6   -303.4143273 -0.260490E-06  0.809E-04    1.21       9.9  T
   7   -303.4143273 -0.319641E-07  0.384E-04    1.21      20.8  T
     SCC iter.                  ...        0 min,  0.943 sec
     gradient                   ...        0 min,  0.270 sec
 * total energy  :  -300.1618316 Eh     change       -0.1414740E-02 Eh
   gradient norm :     0.0171350 Eh/α   predicted    -0.1219067E-02 ( -13.83%)
   displ. norm   :     0.3426309 α      lambda       -0.1176519E-02
   maximum displ.:     0.1692513 α      in ANC's #1, #5, #2, ...

........................................................................
.............................. CYCLE   40 ..............................
........................................................................

 iter      E             dE          RMSdq      gap      omega  full diag
   1   -303.4101862 -0.303410E+03  0.397E-02    1.21       0.0  T
   2   -303.4102205 -0.343554E-04  0.231E-02    1.21       1.0  T
   3   -303.4102193  0.124825E-05  0.105E-02    1.21       1.0  T
   4   -303.4102224 -0.312519E-05  0.394E-03    1.21       2.0  T
   5   -303.4102244 -0.200844E-05  0.127E-03    1.21       6.3  T
   6   -303.4102246 -0.139284E-06  0.648E-04    1.21      12.3  T
   7   -303.4102246 -0.255781E-07  0.297E-04    1.21      26.8  T
     SCC iter.                  ...        0 min,  1.012 sec
     gradient                   ...        0 min,  0.324 sec
 * total energy  :  -300.1624194 Eh     change       -0.5878305E-03 Eh
   gradient norm :     0.0160709 Eh/α   predicted    -0.6573208E-03 (  11.82%)
   displ. norm   :     0.4115860 α      lambda       -0.9422459E-03
   maximum displ.:     0.2284864 α      in ANC's #1, #5, #2, ...

........................................................................
.............................. CYCLE   41 ..............................
........................................................................

 iter      E             dE          RMSdq      gap      omega  full diag
   1   -303.4096640 -0.303410E+03  0.378E-02    1.21       0.0  T
   2   -303.4096890 -0.249966E-04  0.219E-02    1.21       1.0  T
   3   -303.4096830  0.597755E-05  0.113E-02    1.21       1.0  T
   4   -303.4096905 -0.748415E-05  0.452E-03    1.21       1.8  T
   5   -303.4096937 -0.314335E-05  0.108E-03    1.21       7.4  T
   6   -303.4096937 -0.800368E-07  0.542E-04    1.21      14.7  T
   7   -303.4096937 -0.105984E-07  0.238E-04    1.21      33.6  T
     SCC iter.                  ...        0 min,  0.812 sec
     gradient                   ...        0 min,  0.310 sec
 * total energy  :  -300.1630614 Eh     change       -0.6419368E-03 Eh
   gradient norm :     0.0128289 Eh/α   predicted    -0.5509375E-03 ( -14.18%)
   displ. norm   :     0.4720748 α      lambda       -0.8737753E-03
   maximum displ.:     0.2559963 α      in ANC's #1, #5, #2, ...

........................................................................
.............................. CYCLE   42 ..............................
........................................................................

 iter      E             dE          RMSdq      gap      omega  full diag
   1   -303.4123850 -0.303412E+03  0.446E-02    1.21       0.0  T
   2   -303.4124025 -0.175323E-04  0.258E-02    1.21       1.0  T
   3   -303.4123874  0.151467E-04  0.130E-02    1.21       1.0  T
   4   -303.4124057 -0.183534E-04  0.374E-03    1.22       2.1  T
   5   -303.4124078 -0.202133E-05  0.110E-03    1.22       7.3  T
   6   -303.4124078 -0.745123E-07  0.546E-04    1.22      14.6  T
   7   -303.4124079 -0.119022E-07  0.221E-04    1.22      36.2  T
     SCC iter.                  ...        0 min,  0.804 sec
     gradient                   ...        0 min,  0.274 sec
 * total energy  :  -300.1636584 Eh     change       -0.5969804E-03 Eh
   gradient norm :     0.0136308 Eh/α   predicted    -0.5342511E-03 ( -10.51%)
   displ. norm   :     0.5090374 α      lambda       -0.8493762E-03
   maximum displ.:     0.2677346 α      in ANC's #1, #5, #2, ...
 * RMSD in coord.:     0.9683007 α      energy gain  -0.1547801E+00 Eh

generating ANC from model Hessian ...
Using Lindh-Hessian (1995)
 Shifting diagonal of input Hessian by    1.0005465964790730E-002
 Lowest  eigenvalues of input Hessian
    0.010000    0.010003    0.000000    0.000000    0.000000    0.000000
    0.000000    0.000000    0.010025    0.010081    0.010560    0.010756
    0.010817    0.010897    0.011032    0.011134    0.011400    0.011849
 Highest eigenvalues
    2.519914    2.520701    2.521656    2.524667    2.530790    2.534086


........................................................................
.............................. CYCLE   43 ..............................
........................................................................

 iter      E             dE          RMSdq      gap      omega  full diag
[...]
  49: 60.93  50:155.03  51:  2.53  52: 10.22  53:  2.22  54:  7.37  55: 53.80  56: 26.63
  57:  4.89  58:  6.10  59:  1.98  60:  2.32  61: 16.38  62: 15.05  63:  2.94  64:  6.55
  65:  6.53  66:  3.87  67:  4.55  68:  4.55  69:  2.36  70:  1.20  71:  2.70  72:  8.84
  73:  7.93  74:  0.22  75:  4.61  76:  1.45  77:  0.55  78: 13.41  79:  7.25  80:  1.91
  81: 17.55  82: 21.55  83:  7.14  84: 10.88  85: 16.39  86:  9.17  87: 13.12  88:  4.24
  89:  6.21  90: 16.35  91:  8.11  92:  2.33  93: 47.32  94:130.06  95: 20.31  96: 66.02
  97:  6.30  98: 55.02  99: 25.52 100:  3.81 101: 11.90 102:  2.52 103:  8.64 104:  2.75
 105: 11.21 106:  5.84 107: 10.08 108: 16.68 109:  8.50 110:  8.27 111:  4.02 112: 10.80
 113: 11.57 114:  7.21 115:  7.27 116:  1.35 117: 22.43 118:  3.56 119:  6.60 120:  9.06
 121:  2.21 122: 23.48 123:118.23 124: 19.26 125: 20.17 126:  3.49 127: 13.61 128: 36.85
 129: 37.56 130: 67.88 131:  3.35 132: 55.17 133: 16.22 134:  6.59 135: 23.02 136:  4.55
 137:  4.11 138:  6.19 139: 18.42 140: 60.08 141: 19.78 142: 15.93 143: 25.08 144:  2.63
 145:  0.19 146:  3.82 147: 12.70 148: 27.04 149: 30.19 150:  1.84 151: 11.35 152: 34.43
 153: 55.28 154: 20.07 155: 56.45 156: 10.36 157: 32.43 158: 30.64 159: 20.04 160: 48.35
 161: 70.56 162: 28.84 163: 54.84 164:189.45 165:167.68 166:174.88 167:166.94 168:232.49
 169: 18.06 170:120.27 171: 25.14 172:137.00 173: 20.53 174: 80.35 175: 35.20 176: 22.48
 177:  5.99 178:135.68 179:  5.10 180:122.90 181: 98.14 182:138.30 183:401.65 184:707.53
 185:202.82 186: 81.32 187: 28.73 188:166.25 189: 19.24 190:  5.79 191:  3.42 192: 30.18
 193: 17.08 194:  6.01 195: 55.61 196:240.64 197:  3.61 198: 20.12 199:  1.81 200: 80.88
 201: 21.40 202:  2.36 203:  1.88 204:  0.54 205:  2.96 206:  2.03 207: 14.37 208:  8.21
 209: 50.04 210: 21.70 211:  7.32 212:165.15 213:124.74 214: 14.52 215:287.45 216:394.37
 217: 42.71 218:  1.70 219: 39.61 220:  7.34 221: 11.78 222:  1.21 223:  3.80 224: 11.96
 225: 17.31 226:  3.71 227: 13.68 228: 48.23 229:  3.04 230:  3.43 231:  2.21 232: 51.64
 233: 48.33 234: 47.77 235: 73.82 236:  0.37 237: 93.77 238: 20.10 239:  0.92 240: 10.01
 241:  6.29 242: 21.22 243:  3.30 244: 35.90 245:  6.69 246:320.76 247:118.96 248: 19.42
 249:  9.58 250: 23.76 251: 18.46 252: 65.78 253:106.40 254:  3.88 255:  6.12 256: 32.98
 257:  0.82 258: 10.07 259: 10.51 260:  8.16 261: 20.50 262: 31.77 263: 80.67 264:157.44
 265:535.00 266:403.20 267:****** 268:692.43 269:184.52 270: 85.64 271: 16.99 272: 23.42
 273:163.56 274: 97.49 275: 78.58 276:111.05 277:165.77 278:137.31 279:118.04 280:433.59
 281:518.16 282:264.71 283:244.35 284: 81.88 285:  7.36 286:137.64 287:288.07 288:323.92
 289:628.59 290: 12.03 291:355.95 292: 26.13 293: 32.54 294: 20.58 295: 68.71 296:  1.63
 297: 15.01 298: 56.15 299: 27.61 300: 68.76 301: 23.82 302:165.57 303: 92.14 304: 46.31
 305:277.52 306:630.72 307:122.19 308:726.55 309:  7.15 310:877.41 311:122.44 312:157.11
 313:145.43 314: 97.74 315:100.85 316:150.75 317: 38.27 318: 25.42 319: 13.36 320:109.51
 321: 89.88 322: 87.85 323:111.48 324:186.40 325:109.78 326: 30.83 327:127.79 328:132.58
 329: 98.45 330: 10.90 331:453.84 332: 41.13 333:  9.68 334: 37.91 335:137.85 336:  3.03
 337: 34.08 338:136.72 339: 17.75 340:159.27 341:  2.58 342: 47.17 343: 24.68 344:  3.86
 345: 14.90 346: 13.06 347: 17.11 348: 11.12 349: 42.73 350: 52.23 351: 12.81 352: 10.12
 353:172.48 354: 14.20 355: 60.84 356: 28.61 357: 31.70 358:  9.88 359: 38.20 360: 34.27
 361: 67.48 362:132.33 363: 24.89 364:175.25 365:122.92 366:124.98 367:214.41 368: 81.33
 369:737.28 370:197.64 371:879.94 372:287.97 373:923.54 374:524.96 375: 67.14 376:342.43
 377:198.46 378: 70.61 379:  6.12 380: 21.13 381:  4.32 382: 22.54 383: 15.48 384: 13.71
 385: 30.30 386: 11.58 387: 57.93 388:  2.62 389: 13.72 390:130.86 391: 88.85 392: 82.01
 393: 32.51 394: 41.69 395:152.62 396:  2.13 397:  0.76 398:637.86 399:  8.41 400:394.10
 401:479.17 402:  1.13 403: 14.53 404:599.26 405:159.24 406: 48.16 407: 65.08 408:******
 409:698.04 410:129.51 411:182.15 412:128.77 413:****** 414:599.33 415:****** 416:255.73
 417:889.28 418:  1.32 419:  1.69 420: 63.53 421: 52.70 422:  1.34 423:  1.47 424: 54.70
 425: 44.58 426:  1.50 427: 12.18 428: 34.20 429: 36.39 430: 44.69 431:  5.03 432: 22.04
 433: 34.10 434: 43.24 435:  6.02 436: 30.24 437: 25.66 438: 53.69 439:  6.17 440:171.47
 441: 32.84 442: 26.13 443: 43.37 444: 39.46 445: 24.51 446:  1.40 447:  0.18 448:  0.81
 449:  2.45 450:  0.22 451:  0.52 452:  0.09 453:  0.81 454:  1.00 455:  1.87 456:  1.19
 457:  3.28 458:  0.22 459:  8.34 460: 15.60 461: 40.03 462:  5.79 463:  3.12 464: 13.77
 465: 38.17 466: 52.69 467: 55.44 468: 48.92 469: 52.07 470: 27.62 471:210.73
 Raman intensities (amu)
   1:  0.00   2:  0.00   3:  0.00   4:  0.00   5:  0.00   6:  0.00   7:  0.00   8:  0.00
   9:  0.00  10:  0.00  11:  0.00  12:  0.00  13:  0.00  14:  0.00  15:  0.00  16:  0.00
  17:  0.00  18:  0.00  19:  0.00  20:  0.00  21:  0.00  22:  0.00  23:  0.00  24:  0.00
  25:  0.00  26:  0.00  27:  0.00  28:  0.00  29:  0.00  30:  0.00  31:  0.00  32:  0.00
  33:  0.00  34:  0.00  35:  0.00  36:  0.00  37:  0.00  38:  0.00  39:  0.00  40:  0.00
  41:  0.00  42:  0.00  43:  0.00  44:  0.00  45:  0.00  46:  0.00  47:  0.00  48:  0.00
  49:  0.00  50:  0.00  51:  0.00  52:  0.00  53:  0.00  54:  0.00  55:  0.00  56:  0.00
  57:  0.00  58:  0.00  59:  0.00  60:  0.00  61:  0.00  62:  0.00  63:  0.00  64:  0.00
  65:  0.00  66:  0.00  67:  0.00  68:  0.00  69:  0.00  70:  0.00  71:  0.00  72:  0.00
  73:  0.00  74:  0.00  75:  0.00  76:  0.00  77:  0.00  78:  0.00  79:  0.00  80:  0.00
  81:  0.00  82:  0.00  83:  0.00  84:  0.00  85:  0.00  86:  0.00  87:  0.00  88:  0.00
  89:  0.00  90:  0.00  91:  0.00  92:  0.00  93:  0.00  94:  0.00  95:  0.00  96:  0.00
  97:  0.00  98:  0.00  99:  0.00 100:  0.00 101:  0.00 102:  0.00 103:  0.00 104:  0.00
 105:  0.00 106:  0.00 107:  0.00 108:  0.00 109:  0.00 110:  0.00 111:  0.00 112:  0.00
 113:  0.00 114:  0.00 115:  0.00 116:  0.00 117:  0.00 118:  0.00 119:  0.00 120:  0.00
 121:  0.00 122:  0.00 123:  0.00 124:  0.00 125:  0.00 126:  0.00 127:  0.00 128:  0.00
 129:  0.00 130:  0.00 131:  0.00 132:  0.00 133:  0.00 134:  0.00 135:  0.00 136:  0.00
 137:  0.00 138:  0.00 139:  0.00 140:  0.00 141:  0.00 142:  0.00 143:  0.00 144:  0.00
 145:  0.00 146:  0.00 147:  0.00 148:  0.00 149:  0.00 150:  0.00 151:  0.00 152:  0.00
Molecule has no symmetry elements
It seems to be the C1 point group
 153:  0.00 154:  0.00 155:  0.00 156:  0.00 157:  0.00 158:  0.00 159:  0.00 160:  0.00
 161:  0.00 162:  0.00 163:  0.00 164:  0.00 165:  0.00 166:  0.00 167:  0.00 168:  0.00
 169:  0.00 170:  0.00 171:  0.00 172:  0.00 173:  0.00 174:  0.00 175:  0.00 176:  0.00
 177:  0.00 178:  0.00 179:  0.00 180:  0.00 181:  0.00 182:  0.00 183:  0.00 184:  0.00
 185:  0.00 186:  0.00 187:  0.00 188:  0.00 189:  0.00 190:  0.00 191:  0.00 192:  0.00
 193:  0.00 194:  0.00 195:  0.00 196:  0.00 197:  0.00 198:  0.00 199:  0.00 200:  0.00
 201:  0.00 202:  0.00 203:  0.00 204:  0.00 205:  0.00 206:  0.00 207:  0.00 208:  0.00
 209:  0.00 210:  0.00 211:  0.00 212:  0.00 213:  0.00 214:  0.00 215:  0.00 216:  0.00
 217:  0.00 218:  0.00 219:  0.00 220:  0.00 221:  0.00 222:  0.00 223:  0.00 224:  0.00
 225:  0.00 226:  0.00 227:  0.00 228:  0.00 229:  0.00 230:  0.00 231:  0.00 232:  0.00
 233:  0.00 234:  0.00 235:  0.00 236:  0.00 237:  0.00 238:  0.00 239:  0.00 240:  0.00
 241:  0.00 242:  0.00 243:  0.00 244:  0.00 245:  0.00 246:  0.00 247:  0.00 248:  0.00
 249:  0.00 250:  0.00 251:  0.00 252:  0.00 253:  0.00 254:  0.00 255:  0.00 256:  0.00
 257:  0.00 258:  0.00 259:  0.00 260:  0.00 261:  0.00 262:  0.00 263:  0.00 264:  0.00
 265:  0.00 266:  0.00 267:  0.00 268:  0.00 269:  0.00 270:  0.00 271:  0.00 272:  0.00
 273:  0.00 274:  0.00 275:  0.00 276:  0.00 277:  0.00 278:  0.00 279:  0.00 280:  0.00
 281:  0.00 282:  0.00 283:  0.00 284:  0.00 285:  0.00 286:  0.00 287:  0.00 288:  0.00
 289:  0.00 290:  0.00 291:  0.00 292:  0.00 293:  0.00 294:  0.00 295:  0.00 296:  0.00
 297:  0.00 298:  0.00 299:  0.00 300:  0.00 301:  0.00 302:  0.00 303:  0.00 304:  0.00
 305:  0.00 306:  0.00 307:  0.00 308:  0.00 309:  0.00 310:  0.00 311:  0.00 312:  0.00
 313:  0.00 314:  0.00 315:  0.00 316:  0.00 317:  0.00 318:  0.00 319:  0.00 320:  0.00
 321:  0.00 322:  0.00 323:  0.00 324:  0.00 325:  0.00 326:  0.00 327:  0.00 328:  0.00
 329:  0.00 330:  0.00 331:  0.00 332:  0.00 333:  0.00 334:  0.00 335:  0.00 336:  0.00
 337:  0.00 338:  0.00 339:  0.00 340:  0.00 341:  0.00 342:  0.00 343:  0.00 344:  0.00
 345:  0.00 346:  0.00 347:  0.00 348:  0.00 349:  0.00 350:  0.00 351:  0.00 352:  0.00
 353:  0.00 354:  0.00 355:  0.00 356:  0.00 357:  0.00 358:  0.00 359:  0.00 360:  0.00
 361:  0.00 362:  0.00 363:  0.00 364:  0.00 365:  0.00 366:  0.00 367:  0.00 368:  0.00
 369:  0.00 370:  0.00 371:  0.00 372:  0.00 373:  0.00 374:  0.00 375:  0.00 376:  0.00
 377:  0.00 378:  0.00 379:  0.00 380:  0.00 381:  0.00 382:  0.00 383:  0.00 384:  0.00
 385:  0.00 386:  0.00 387:  0.00 388:  0.00 389:  0.00 390:  0.00 391:  0.00 392:  0.00
 393:  0.00 394:  0.00 395:  0.00 396:  0.00 397:  0.00 398:  0.00 399:  0.00 400:  0.00
 401:  0.00 402:  0.00 403:  0.00 404:  0.00 405:  0.00 406:  0.00 407:  0.00 408:  0.00
 409:  0.00 410:  0.00 411:  0.00 412:  0.00 413:  0.00 414:  0.00 415:  0.00 416:  0.00
 417:  0.00 418:  0.00 419:  0.00 420:  0.00 421:  0.00 422:  0.00 423:  0.00 424:  0.00
 425:  0.00 426:  0.00 427:  0.00 428:  0.00 429:  0.00 430:  0.00 431:  0.00 432:  0.00
 433:  0.00 434:  0.00 435:  0.00 436:  0.00 437:  0.00 438:  0.00 439:  0.00 440:  0.00
 441:  0.00 442:  0.00 443:  0.00 444:  0.00 445:  0.00 446:  0.00 447:  0.00 448:  0.00
 449:  0.00 450:  0.00 451:  0.00 452:  0.00 453:  0.00 454:  0.00 455:  0.00 456:  0.00
 457:  0.00 458:  0.00 459:  0.00 460:  0.00 461:  0.00 462:  0.00 463:  0.00 464:  0.00
 465:  0.00 466:  0.00 467:  0.00 468:  0.00 469:  0.00 470:  0.00 471:  0.00
 output can be read by thermo (or use thermo option).
 writing <g98.out> molden fake output.
 recommended (thermochemical) frequency scaling factor: 1.0
           -------------------------------------------------
          |             Thermodynamic Functions             |
           -------------------------------------------------

c1  symmetry found (for desy threshold:  0.10E+00) used in thermo

          ...................................................
          :                      SETUP                      :
          :.................................................:
          :  # frequencies                         465      :
          :  # imaginary freq.                       0      :
          :  linear?                             false      :
          :  only rotor calc.                    false      :
          :  symmetry                               c1      :
          :  rotational number                       1      :
          :  scaling factor                  1.0000000      :
          :  rotor cutoff                   50.0000000 cm⁻¹ :
          :  imag. cutoff                  -20.0000000 cm⁻¹ :
          :.................................................:

    mode    ω/cm⁻¹     T·S(HO)/kcal·mol⁻¹    T·S(FR)/kcal·mol⁻¹   T·S(vib)
   ------------------------------------------------------------------------
       1     12.58    -2.25251 (  0.40%)    -1.46531 ( 99.60%)    -1.46845
       2     23.70    -1.87753 (  4.80%)    -1.27771 ( 95.20%)    -1.30653
       3     28.03    -1.77829 (  8.99%)    -1.22803 ( 91.01%)    -1.27747
       4     35.20    -1.64355 ( 19.72%)    -1.16053 ( 80.28%)    -1.25577
       5     41.97    -1.53959 ( 33.18%)    -1.10840 ( 66.82%)    -1.25146
       6     43.51    -1.51835 ( 36.44%)    -1.09775 ( 63.56%)    -1.25102
       7     47.41    -1.46767 ( 44.70%)    -1.07230 ( 55.30%)    -1.24904
       8     53.44    -1.39713 ( 56.61%)    -1.03686 ( 43.39%)    -1.24080
       9     56.11    -1.36834 ( 61.33%)    -1.02238 ( 38.67%)    -1.23457
      10     61.41    -1.31520 ( 69.48%)    -0.99563 ( 30.52%)    -1.21766
      11     61.93    -1.31024 ( 70.19%)    -0.99314 ( 29.81%)    -1.21570
      12     65.64    -1.27612 ( 74.81%)    -0.97594 ( 25.19%)    -1.20050
      13     67.20    -1.26233 ( 76.54%)    -0.96898 ( 23.46%)    -1.19350
      14     68.50    -1.25106 ( 77.89%)    -0.96330 ( 22.11%)    -1.18743
      15     72.29    -1.21941 ( 81.38%)    -0.94732 ( 18.62%)    -1.16875
      16     74.29    -1.20347 ( 82.97%)    -0.93927 ( 17.03%)    -1.15848
      17     75.34    -1.19522 ( 83.75%)    -0.93510 ( 16.25%)    -1.15295
      18     80.38    -1.15731 ( 86.98%)    -0.91592 ( 13.02%)    -1.12587
      19     80.89    -1.15361 ( 87.26%)    -0.91405 ( 12.74%)    -1.12309
      20     83.62    -1.13416 ( 88.67%)    -0.90419 ( 11.33%)    -1.10810
      21     85.39    -1.12194 ( 89.48%)    -0.89800 ( 10.52%)    -1.09838
      22     92.85    -1.07305 ( 92.24%)    -0.87317 (  7.76%)    -1.05754
      23    100.99    -1.02417 ( 94.33%)    -0.84828 (  5.67%)    -1.01420
      24    103.27    -1.01121 ( 94.79%)    -0.84167 (  5.21%)    -1.00238
      25    106.10    -0.99556 ( 95.30%)    -0.83368 (  4.70%)    -0.98795
      26    107.75    -0.98661 ( 95.57%)    -0.82911 (  4.43%)    -0.97963
      27    112.90    -0.95955 ( 96.30%)    -0.81526 (  3.70%)    -0.95421
      28    116.35    -0.94221 ( 96.70%)    -0.80636 (  3.30%)    -0.93772
      29    119.76    -0.92553 ( 97.05%)    -0.79779 (  2.95%)    -0.92176
      30    122.52    -0.91242 ( 97.30%)    -0.79105 (  2.70%)    -0.90914
      31    125.62    -0.89805 ( 97.55%)    -0.78364 (  2.45%)    -0.89524
      32    131.29    -0.87270 ( 97.94%)    -0.77056 (  2.06%)    -0.87059
      33    135.21    -0.85588 ( 98.16%)    -0.76186 (  1.84%)    -0.85415
      34    139.53    -0.83788 ( 98.38%)    -0.75252 (  1.62%)    -0.83650
      35    143.26    -0.82285 ( 98.54%)    -0.74471 (  1.46%)    -0.82171
      36    146.68    -0.80942 ( 98.67%)    -0.73772 (  1.33%)    -0.80846
      37    147.72    -0.80543 ( 98.70%)    -0.73564 (  1.30%)    -0.80453
      38    149.46    -0.79876 ( 98.76%)    -0.73216 (  1.24%)    -0.79794
      39    152.78    -0.78631 ( 98.87%)    -0.72565 (  1.13%)    -0.78563
      40    155.85    -0.77505 ( 98.95%)    -0.71976 (  1.05%)    -0.77447
      41    157.22    -0.77011 ( 98.99%)    -0.71716 (  1.01%)    -0.76957
      42    161.21    -0.75596 ( 99.08%)    -0.70974 (  0.92%)    -0.75554
      43    162.06    -0.75300 ( 99.10%)    -0.70818 (  0.90%)    -0.75260
      44    166.55    -0.73763 ( 99.19%)    -0.70008 (  0.81%)    -0.73732
      45    168.01    -0.73273 ( 99.22%)    -0.69750 (  0.78%)    -0.73245
      46    170.68    -0.72391 ( 99.27%)    -0.69284 (  0.73%)    -0.72368
      47    174.15    -0.71265 ( 99.33%)    -0.68687 (  0.67%)    -0.71247
      48    176.69    -0.70456 ( 99.36%)    -0.68258 (  0.64%)    -0.70442
      49    181.25    -0.69036 ( 99.42%)    -0.67503 (  0.58%)    -0.69027
      50    184.05    -0.68185 ( 99.46%)    -0.67049 (  0.54%)    -0.68179
      51    186.32    -0.67505 ( 99.48%)    -0.66686 (  0.52%)    -0.67501
      52    189.96    -0.66436 ( 99.52%)    -0.66114 (  0.48%)    -0.66434
      53    193.24    -0.65489 ( 99.55%)    -0.65606 (  0.45%)    -0.65490
      54    198.29    -0.64069 ( 99.60%)    -0.64841 (  0.40%)    -0.64072
      55    204.60    -0.62354 ( 99.64%)    -0.63914 (  0.36%)    -0.62360
      56    213.46    -0.60043 ( 99.70%)    -0.62657 (  0.30%)    -0.60050
      57    215.28    -0.59584 ( 99.71%)    -0.62406 (  0.29%)    -0.59592
      58    217.09    -0.59131 ( 99.72%)    -0.62159 (  0.28%)    -0.59139
      59    223.53    -0.57551 ( 99.75%)    -0.61291 (  0.25%)    -0.57560
      60    227.32    -0.56649 ( 99.77%)    -0.60794 (  0.23%)    -0.56659
      61    231.47    -0.55679 ( 99.78%)    -0.60258 (  0.22%)    -0.55689
      62    235.53    -0.54753 ( 99.80%)    -0.59743 (  0.20%)    -0.54763
      63    239.46    -0.53873 ( 99.81%)    -0.59253 (  0.19%)    -0.53883
      64    244.92    -0.52678 ( 99.83%)    -0.58585 (  0.17%)    -0.52689
      65    249.63    -0.51675 ( 99.84%)    -0.58021 (  0.16%)    -0.51685
      66    254.31    -0.50700 ( 99.85%)    -0.57470 (  0.15%)    -0.50710
      67    263.36    -0.48878 ( 99.87%)    -0.56434 (  0.13%)    -0.48888
      68    270.46    -0.47502 ( 99.88%)    -0.55646 (  0.12%)    -0.47512
      69    275.77    -0.46505 ( 99.89%)    -0.55071 (  0.11%)    -0.46515
      70    279.25    -0.45864 ( 99.90%)    -0.54699 (  0.10%)    -0.45873
      71    281.19    -0.45510 ( 99.90%)    -0.54494 (  0.10%)    -0.45519
      72    291.66    -0.43658 ( 99.91%)    -0.53411 (  0.09%)    -0.43667
      73    297.31    -0.42695 ( 99.92%)    -0.52842 (  0.08%)    -0.42703
   ------------------------------------------------------------------------

   temp. (K)  partition function   enthalpy   heat capacity  entropy
                                   cal/mol     cal/K/mol   cal/K/mol   J/K/mol
 298.15  VIB  0.396E+32            47389.810    306.148    289.997
         ROT  0.291E+09              888.752      2.981     41.713
         INT  0.115E+41            48278.562    309.128    331.710
         TR   0.508E+29             1481.254      4.968     47.568
         TOT                       49759.8161   314.0966   379.2780  1586.8991

       T/K    H(0)-H(T)+PV         H(T)/Eh          T*S/Eh         G(T)/Eh
   ------------------------------------------------------------------------
    298.15    0.792973E-01    0.124063E+01    0.180207E+00    0.106042E+01
   ------------------------------------------------------------------------

         :::::::::::::::::::::::::::::::::::::::::::::::::::::
         ::                  THERMODYNAMIC                  ::
         :::::::::::::::::::::::::::::::::::::::::::::::::::::
         :: total free energy        -299.116816834661 Eh   ::
         ::.................................................::
         :: total energy             -300.177241066504 Eh   ::
         :: zero point energy           1.161334128121 Eh   ::
         :: G(RRHO) w/o ZPVE           -0.100909896277 Eh   ::
         :: G(RRHO) contrib.            1.060424231843 Eh   ::
         :::::::::::::::::::::::::::::::::::::::::::::::::::::

optimized geometry written to: xtbopt.sdf


           -------------------------------------------------
          | TOTAL ENERGY             -300.177241066504 Eh   |
          | TOTAL ENTHALPY           -298.936609623860 Eh   |
          | TOTAL FREE ENERGY        -299.116816834661 Eh   |
          | GRADIENT NORM               0.000499922306 Eh/α |
          | HOMO-LUMO GAP               1.232789247993 eV   |
           -------------------------------------------------
########################################################################
[WARNING] Runtime exception occurred
-2- restart_readRestart: Dimension missmatch in restart file.
-1- restart_readRestart: Number of electron missmatch in restart file.
########################################################################

------------------------------------------------------------------------
 * finished run on 2023/10/30 at 02:15:19.821     
------------------------------------------------------------------------
 total:
 * wall-time:     0 d,  0 h,  7 min, 38.369 sec
 *  cpu-time:     0 d,  0 h, 44 min,  9.552 sec
 * ratio c/w:     5.780 speedup
 SCF:
 * wall-time:     0 d,  0 h,  0 min,  4.475 sec
 *  cpu-time:     0 d,  0 h,  0 min,  8.432 sec
 * ratio c/w:     1.884 speedup
 ANC optimizer:
 * wall-time:     0 d,  0 h,  2 min, 17.217 sec
 *  cpu-time:     0 d,  0 h,  5 min, 45.253 sec
 * ratio c/w:     2.516 speedup
 analytical hessian:
 * wall-time:     0 d,  0 h,  5 min, 15.985 sec
 *  cpu-time:     0 d,  0 h, 38 min, 14.817 sec
 * ratio c/w:     7.262 speedup

