 Entering Gaussian System
 *********************************************
 Gaussian 98:
 frequency output generated by the xtb code
 *********************************************
                         Standard orientation:
 --------------------------------------------------------------------
  Center     Atomic     Atomic              Coordinates (Angstroms)
  Number     Number      Type              X           Y           Z
 --------------------------------------------------------------------
    1          7             0        1.502621   -0.623200   -5.518540
    2          6             0        1.328050    0.700050   -6.068373
    3          6             0       -0.214450    0.854327   -6.126648
    4          7             0       -0.701450   -0.417845   -5.649289
    5          6             0        0.314618   -1.271671   -5.300757
    6          7             0        1.744969    1.783405   -5.214250
    7          6             0        0.689229    2.529943   -4.761391
    8          7             0       -0.463072    1.971697   -5.251141
    9          8             0        0.186477   -2.423979   -4.947284
   10          8             0        0.761581    3.551660   -4.117526
   11          7             0       -2.875669   -0.426333   -4.582336
   12          6             0       -3.498073    0.872600   -4.472138
   13          6             0       -4.390956    0.733239   -3.211631
   14          7             0       -4.204686   -0.641803   -2.820485
   15          6             0       -3.314605   -1.304629   -3.625847
   16          7             0       -2.599173    1.940957   -4.127075
   17          6             0       -2.766418    2.374789   -2.840938
   18          7             0       -3.819677    1.684724   -2.289838
   19          8             0       -3.031907   -2.481487   -3.554183
   20          8             0       -2.146119    3.257770   -2.292274
   21          7             0        4.719518   -1.588339    0.210775
   22          6             0        5.302730   -0.442473    0.868512
   23          6             0        4.889112   -0.640546    2.349222
   24          7             0        4.201035   -1.906024    2.340515
   25          6             0        4.093342   -2.439194    1.084169
   26          7             0        4.694148    0.812360    0.508646
   27          6             0        3.935135    1.331752    1.527576
   28          7             0        4.028503    0.486892    2.607617
   29          8             0        3.597838   -3.509964    0.802983
   30          8             0        3.326950    2.377559    1.509260
   31          7             0       -1.657885   -2.227977    4.982924
   32          6             0       -2.354478   -1.171012    5.680792
   33          6             0       -3.588452   -0.908311    4.777209
   34          7             0       -3.468032   -1.905310    3.741090
   35          6             0       -2.337245   -2.671333    3.878098
   36          7             0       -1.669935    0.096083    5.686600
   37          6             0       -2.253850    1.009890    4.857242
   38          7             0       -3.374165    0.441194    4.315221
   39          8             0       -2.028324   -3.611803    3.178999
   40          8             0       -1.881111    2.146670    4.671528
   41          7             0       -4.795769   -0.988192   -0.496975
   42          6             0       -5.335684    0.187689    0.143548
   43          6             0       -5.244845   -0.145550    1.654766
   44          7             0       -4.621455   -1.447183    1.668463
   45          6             0       -4.387406   -1.935423    0.408861
   46          7             0       -4.498697    1.353676    0.013411
   47          6             0       -3.923217    1.719816    1.198562
   48          7             0       -4.405079    0.897864    2.180357
   49          8             0       -3.959336   -3.038105    0.142320
   50          8             0       -3.157889    2.645668    1.368773
   51          6             0        3.903326   -2.657218    3.529831
   52          6             0       -1.739943    2.603178   -5.070524
   53          6             0        3.684515    0.911852    3.940515
   54          6             0       -2.076449   -0.838970   -5.705396
   55          7             0        3.444010   -0.869740   -4.103748
   56          6             0        4.375414    0.232593   -4.017884
   57          6             0        5.027093    0.038078   -2.625287
   58          7             0        4.457827   -1.197910   -2.155617
   59          6             0        3.528488   -1.710712   -3.025203
   60          7             0        3.774396    1.535430   -3.923476
   61          6             0        3.898987    2.086682   -2.673281
   62          7             0        4.593089    1.201246   -1.887916
   63          8             0        2.938366   -2.761446   -2.889658
   64          8             0        3.541103    3.194611   -2.340771
   65          6             0        2.775241   -1.256853   -5.319826
   66          6             0        3.108574    2.197763   -5.012314
   67          6             0        5.136944    1.595561   -0.614306
   68          6             0        5.060340   -1.994523   -1.123710
   69          6             0       -5.048659   -1.317910   -1.874536
   70          6             0       -4.517912    2.203784   -1.143563
   71          6             0       -4.533892   -2.267922    2.847232
   72          6             0       -4.333315    1.218772    3.582147
   73          7             0        0.741155    0.001789    5.749706
   74          6             0        1.373444   -1.279347    5.903192
   75          6             0        2.722758   -1.107202    5.159773
   76          7             0        2.588139    0.191731    4.534925
   77          6             0        1.440652    0.832864    4.921969
   78          7             0        0.736209   -2.352981    5.171755
   79          6             0        1.557982   -2.909932    4.228168
   80          7             0        2.736391   -2.208023    4.233248
   81          8             0        1.124338    1.962230    4.614244
   82          8             0        1.317524   -3.892899    3.561112
   83          6             0       -0.470814    0.395777    6.421546
   84          6             0       -0.529020   -2.936368    5.527140
   85          1             0        1.839628    0.768926   -7.038609
   86          1             0       -0.625179    1.057250   -7.125657
   87          1             0       -4.030717    1.112348   -5.402614
   88          1             0       -5.458418    0.941021   -3.368048
   89          1             0        6.384732   -0.409965    0.681204
   90          1             0        5.718011   -0.666051    3.069933
   91          1             0       -2.584840   -1.484083    6.707545
   92          1             0       -4.561693   -0.995308    5.277860
   93          1             0       -6.345333    0.394511   -0.234600
   94          1             0       -6.203086   -0.175705    2.190398
   95          1             0        4.767078   -2.617237    4.204266
   96          1             0        3.703111   -3.685373    3.207466
   97          1             0       -2.257474    2.665660   -6.033556
   98          1             0       -1.528884    3.600673   -4.667026
   99          1             0        3.368805    1.959313    3.866757
  100          1             0        4.569618    0.815916    4.582526
  101          1             0       -2.068710   -1.935225   -5.691815
  102          1             0       -2.527090   -0.457574   -6.628281
  103          1             0        5.069602    0.201841   -4.869323
  104          1             0        6.124304   -0.026293   -2.627611
  105          1             0        3.426260   -1.033189   -6.171837
  106          1             0        2.575211   -2.332331   -5.244931
  107          1             0        3.077246    3.262351   -4.752376
  108          1             0        3.675832    2.028740   -5.932323
  109          1             0        4.797396    2.624645   -0.448572
  110          1             0        6.233525    1.549279   -0.660979
  111          1             0        6.151801   -1.965221   -1.245273
  112          1             0        4.682266   -3.016833   -1.242075
  113          1             0       -4.846193   -2.389154   -1.986601
  114          1             0       -6.097993   -1.092639   -2.108898
  115          1             0       -5.562755    2.398133   -1.421503
  116          1             0       -4.009939    3.134891   -0.866184
  117          1             0       -4.329041   -3.286996    2.499576
  118          1             0       -5.486075   -2.222584    3.389546
  119          1             0       -5.327501    1.085398    4.022589
  120          1             0       -4.007726    2.262112    3.662608
  121          1             0        1.453489   -1.541985    6.966258
  122          1             0        3.617031   -1.135391    5.796184
  123          1             0       -0.510500   -0.095258    7.395948
  124          1             0       -0.439006    1.485597    6.529700
  125          1             0       -0.540201   -3.942609    5.092164
  126          1             0       -0.620307   -2.976554    6.617119
  127          6             0        0.232048   -0.150970   -2.125782
  128          6             0        0.664447    1.251174   -1.711387
  129          6             0        0.866357    1.316906   -0.205083
  130          6             0       -0.445499    0.968763    0.498084
  131          6             0       -0.826729   -0.469464    0.134841
  132          6             0       -1.025160   -0.579247   -1.373126
  133          6             0       -0.334418    1.158532    2.008128
  134          7             0       -0.432901    2.583833    2.369263
  135          1             0        1.034060   -0.870598   -1.926493
  136          1             0        0.035894   -0.182052   -3.198561
  137          1             0        1.585136    1.528879   -2.224355
  138          1             0       -0.093858    1.981869   -2.000723
  139          1             0        1.222717    2.312843    0.062963
  140          1             0        1.636681    0.596503    0.084940
  141          1             0       -1.227320    1.634911    0.118629
  142          1             0       -0.039523   -1.163382    0.445812
  143          1             0       -1.746735   -0.776660    0.642478
  144          1             0       -1.851028    0.074218   -1.665385
  145          1             0       -1.288668   -1.604592   -1.650834
  146          1             0        0.620815    0.763873    2.357150
  147          1             0       -1.140055    0.615556    2.505600
  148          1             0       -0.261913    2.697978    3.383171
  149          1             0        0.261209    3.129074    1.851724
  150          1             0       -1.381195    2.927735    2.144882
 --------------------------------------------------------------------
     1 basis functions        1 primitive gaussians
     1 alpha electrons        1 beta electrons

 Harmonic frequencies (cm**-1), IR intensities (km*mol⁻¹),
 Raman scattering activities (A**4/amu), Raman depolarization ratios,
 reduced masses (AMU), force constants (mDyne/A) and normal coordinates:
                      1                      2                      3
                        a                      a                      a 
 Frequencies --   -14.7665                18.7171                21.4975
 Red. masses --    11.5898                13.0914                13.2648
 Frc consts  --     0.0000                 0.0000                 0.0000
 IR Inten    --     8.7315                 0.3806                 0.2848
 Raman Activ --     0.0000                 0.0000                 0.0000
 Depolar     --     0.0000                 0.0000                 0.0000
 Atom AN      X      Y      Z        X      Y      Z        X      Y      Z
   1   7    -0.01   0.02   0.00    -0.07  -0.03   0.07    -0.00   0.04  -0.10
   2   6    -0.00   0.01  -0.02    -0.02  -0.04   0.03     0.00   0.05  -0.06
   3   6    -0.00   0.00  -0.05    -0.02  -0.00  -0.01     0.00   0.06  -0.05
   4   7    -0.01   0.00  -0.06    -0.06   0.01  -0.03     0.00   0.05  -0.09
   5   6    -0.01   0.01  -0.03    -0.08  -0.01   0.03    -0.00   0.04  -0.10
   6   7    -0.03   0.02  -0.02    -0.02  -0.03   0.02     0.01   0.03  -0.03
   7   6    -0.04   0.02  -0.04    -0.01  -0.01  -0.00     0.01   0.02  -0.02
   8   7    -0.03   0.01  -0.08    -0.01  -0.00  -0.00     0.01   0.04  -0.03
   9   8    -0.01   0.01  -0.05    -0.14   0.00   0.05    -0.00   0.03  -0.15
  10   8    -0.07   0.02  -0.05     0.00  -0.00  -0.02     0.01   0.01   0.01
  11   7     0.00   0.01  -0.04    -0.08   0.04  -0.07     0.01   0.02  -0.07
  12   6    -0.02  -0.00  -0.05    -0.05   0.05  -0.05     0.01   0.01  -0.02
  13   6     0.01   0.01  -0.02    -0.06   0.05  -0.06     0.03  -0.02  -0.01
  14   7     0.02   0.01  -0.03    -0.09   0.05  -0.08     0.08  -0.02  -0.02
  15   6     0.01   0.01  -0.03    -0.09   0.04  -0.08     0.06   0.00  -0.06
  16   7    -0.03   0.02  -0.09    -0.03   0.03  -0.03     0.02   0.01  -0.01
  17   6     0.01   0.02  -0.08    -0.04   0.02  -0.03     0.01   0.00  -0.01
  18   7     0.04   0.01  -0.04    -0.06   0.04  -0.05     0.02  -0.01  -0.01
  19   8     0.02   0.01  -0.03    -0.12   0.04  -0.10     0.09   0.01  -0.09
  20   8     0.02   0.04  -0.12    -0.03   0.01  -0.02    -0.00   0.01  -0.00
  21   7    -0.02   0.02   0.02     0.02  -0.02   0.08    -0.19  -0.02  -0.01
  22   6    -0.03   0.03   0.02     0.03  -0.00   0.04    -0.10  -0.04  -0.02
  23   6    -0.00   0.01   0.03     0.07   0.02   0.05    -0.08  -0.03  -0.01
  24   7     0.01   0.00   0.03     0.12  -0.00   0.11    -0.13  -0.01   0.01
  25   6     0.00   0.01   0.02     0.07  -0.02   0.11    -0.18   0.00   0.01
  26   7    -0.08   0.02   0.05     0.01  -0.02   0.03    -0.06  -0.02  -0.00
  27   6    -0.07  -0.01   0.06     0.00  -0.02   0.03    -0.03   0.00   0.01
  28   7    -0.01  -0.00   0.06     0.04   0.00   0.05    -0.05  -0.00   0.00
  29   8     0.02   0.01   0.02     0.11  -0.05   0.17    -0.27   0.03   0.03
  30   8    -0.13  -0.04   0.08    -0.02  -0.04   0.02     0.00   0.02   0.02
  31   7    -0.01  -0.01   0.00     0.10   0.00  -0.07     0.02  -0.01   0.15
  32   6     0.00   0.00  -0.01     0.05  -0.03  -0.06    -0.01   0.02   0.07
  33   6     0.01   0.02  -0.01     0.07  -0.04  -0.09     0.03  -0.00   0.01
  34   7    -0.00   0.01  -0.01     0.13  -0.01  -0.12     0.09  -0.01   0.03
  35   6    -0.01  -0.00   0.00     0.13   0.01  -0.09     0.07  -0.02   0.11
  36   7     0.02  -0.01  -0.01     0.02  -0.02  -0.01    -0.00   0.02   0.06
  37   6     0.05  -0.01  -0.03     0.02  -0.01  -0.00     0.02   0.00   0.02
  38   7     0.04   0.01  -0.03     0.05  -0.02  -0.05     0.03  -0.01   0.00
  39   8    -0.03  -0.01   0.01     0.20   0.05  -0.13     0.11  -0.05   0.17
  40   8     0.10  -0.03  -0.07    -0.00   0.01   0.04     0.02   0.00   0.01
  41   7     0.03   0.01  -0.02    -0.04   0.02  -0.08     0.14  -0.03  -0.01
  42   6     0.05   0.02  -0.03    -0.01   0.01  -0.03     0.08  -0.05  -0.01
  43   6     0.04   0.03  -0.02     0.04  -0.02  -0.04     0.09  -0.05  -0.01
  44   7     0.01   0.02  -0.02     0.09  -0.01  -0.09     0.15  -0.03  -0.01
  45   6     0.01   0.01  -0.01     0.02   0.02  -0.11     0.16  -0.02  -0.01
  46   7     0.09   0.00  -0.03    -0.02   0.02  -0.04     0.04  -0.02  -0.01
  47   6     0.10  -0.02  -0.03    -0.01   0.01  -0.04     0.02  -0.00  -0.01
  48   7     0.06   0.01  -0.03     0.03  -0.01  -0.05     0.06  -0.02  -0.01
  49   8    -0.01  -0.00  -0.01     0.03   0.03  -0.17     0.23   0.00  -0.01
  50   8     0.17  -0.07  -0.04    -0.03   0.03  -0.05    -0.02   0.03  -0.01
  51   6     0.00   0.00   0.02     0.14   0.02   0.13    -0.06  -0.01   0.02
  52   6    -0.04   0.00  -0.10    -0.01   0.02  -0.02     0.01   0.03  -0.00
  53   6     0.03  -0.01   0.07     0.03   0.01   0.04    -0.03  -0.00   0.01
  54   6    -0.01   0.01  -0.04    -0.06   0.04  -0.06     0.00   0.05  -0.08
  55   7    -0.02   0.03   0.02    -0.09  -0.05   0.10    -0.04   0.01  -0.07
  56   6    -0.04   0.04   0.03    -0.06  -0.06   0.05    -0.02  -0.01  -0.01
  57   6    -0.05   0.04   0.04    -0.04  -0.05   0.05    -0.07  -0.04   0.01
  58   7    -0.03   0.03   0.03    -0.06  -0.03   0.09    -0.15  -0.01  -0.01
  59   6    -0.02   0.02   0.02    -0.08  -0.02   0.10    -0.10   0.00  -0.06
  60   7    -0.07   0.03   0.03    -0.03  -0.05   0.03    -0.01   0.00  -0.01
  61   6    -0.11   0.01   0.04    -0.01  -0.03   0.02    -0.00  -0.00  -0.01
  62   7    -0.10   0.03   0.05    -0.02  -0.03   0.03    -0.04  -0.02  -0.00
  63   8    -0.01   0.02   0.01    -0.12  -0.01   0.16    -0.14   0.01  -0.10
  64   8    -0.19  -0.01   0.07     0.02  -0.02   0.01     0.03   0.01  -0.02
  65   6    -0.01   0.02   0.02    -0.09  -0.06   0.10    -0.00   0.04  -0.09
  66   6    -0.04   0.03   0.02    -0.01  -0.05   0.02     0.01   0.01  -0.02
  67   6    -0.11   0.04   0.04    -0.01  -0.02   0.02    -0.04  -0.03  -0.00
  68   6    -0.01   0.03   0.02    -0.03  -0.03   0.07    -0.19  -0.04  -0.00
  69   6     0.02   0.01  -0.02    -0.08   0.05  -0.07     0.12  -0.05  -0.00
  70   6     0.07   0.01  -0.02    -0.04   0.02  -0.03     0.01  -0.02  -0.01
  71   6    -0.00   0.02  -0.01     0.13  -0.03  -0.11     0.13  -0.04  -0.01
  72   6     0.06   0.02  -0.03     0.04  -0.02  -0.04     0.03  -0.01  -0.01
  73   7     0.02  -0.00   0.07     0.02  -0.02   0.01    -0.00   0.02   0.05
  74   6    -0.00  -0.02   0.03     0.04   0.00   0.04     0.02   0.03   0.09
  75   6     0.01  -0.02   0.05     0.06   0.02   0.08    -0.01   0.01   0.05
  76   7     0.03  -0.00   0.09     0.04  -0.00   0.04    -0.02  -0.01   0.02
  77   6     0.03   0.01   0.09     0.01  -0.02   0.00    -0.02  -0.00   0.01
  78   7    -0.01   0.01   0.00     0.09  -0.02   0.04     0.01  -0.02   0.18
  79   6    -0.01   0.02  -0.01     0.13  -0.03   0.08    -0.02  -0.04   0.16
  80   7    -0.00   0.01   0.02     0.13  -0.01   0.12    -0.04  -0.02   0.08
  81   8     0.07   0.03   0.14    -0.01  -0.04  -0.03    -0.04  -0.02  -0.02
  82   8    -0.02   0.04  -0.04     0.20  -0.06   0.11    -0.03  -0.08   0.24
  83   6    -0.00  -0.01   0.03     0.01  -0.02  -0.00    -0.00   0.03   0.05
  84   6    -0.01  -0.00  -0.01     0.06  -0.01  -0.03     0.00   0.02   0.19
  85   1     0.01   0.00  -0.00     0.00  -0.02   0.01     0.00   0.02  -0.02
  86   1     0.01  -0.00  -0.02     0.00   0.00  -0.00     0.00   0.02  -0.01
  87   1    -0.01  -0.01  -0.01    -0.01   0.02  -0.01    -0.00   0.01  -0.00
  88   1     0.00   0.00  -0.00    -0.02   0.02  -0.02     0.01  -0.01   0.00
  89   1    -0.01   0.02   0.00     0.01   0.00   0.00    -0.03  -0.03  -0.01
  90   1     0.00   0.00   0.00     0.02   0.02   0.01    -0.02  -0.01  -0.01
  91   1    -0.00   0.00  -0.00     0.01  -0.02  -0.02    -0.01   0.02   0.02
  92   1     0.00   0.01  -0.01     0.02  -0.02  -0.03     0.00  -0.00  -0.01
  93   1     0.02   0.01  -0.01    -0.01   0.00   0.00     0.02  -0.03  -0.00
  94   1     0.01   0.01  -0.01     0.02  -0.02  -0.00     0.03  -0.03  -0.00
  95   1    -0.00  -0.00   0.01     0.04   0.03   0.04    -0.01  -0.00  -0.00
  96   1    -0.00   0.00   0.01     0.05   0.00   0.05    -0.02  -0.00   0.01
  97   1    -0.01  -0.01  -0.03     0.00   0.01  -0.01    -0.00   0.01   0.00
  98   1    -0.01   0.00  -0.04     0.00   0.00  -0.00     0.00   0.01   0.00
  99   1     0.01  -0.00   0.03     0.00   0.00   0.01    -0.01  -0.00   0.00
 100   1     0.01  -0.01   0.01     0.01   0.01   0.01    -0.01  -0.00  -0.00
 101   1    -0.00   0.00  -0.01    -0.03   0.01  -0.02    -0.00   0.01  -0.03
 102   1    -0.00   0.00  -0.01    -0.01   0.02  -0.02    -0.00   0.02  -0.02
 103   1    -0.01   0.01   0.01    -0.02  -0.03   0.01     0.00  -0.00   0.00
 104   1    -0.01   0.02   0.02    -0.01  -0.02   0.01    -0.02  -0.02   0.01
 105   1     0.00   0.01   0.01    -0.02  -0.03   0.03     0.00   0.02  -0.02
 106   1    -0.00   0.01   0.00    -0.03  -0.02   0.04    -0.00   0.01  -0.03
 107   1    -0.02   0.01   0.01     0.00  -0.01   0.00     0.01   0.00  -0.00
 108   1    -0.00   0.01   0.01    -0.00  -0.02   0.01     0.00   0.00  -0.00
 109   1    -0.04   0.01   0.01    -0.00  -0.01   0.01    -0.00  -0.01  -0.00
 110   1    -0.03   0.02   0.01    -0.00  -0.00   0.00    -0.01  -0.02   0.00
 111   1    -0.00   0.01   0.00    -0.01  -0.01   0.01    -0.05  -0.03   0.00
 112   1    -0.00   0.01   0.01    -0.01  -0.01   0.02    -0.07  -0.01  -0.00
 113   1     0.01   0.00  -0.00    -0.03   0.01  -0.03     0.05  -0.01  -0.00
 114   1     0.01   0.00  -0.00    -0.02   0.02  -0.01     0.03  -0.03   0.00
 115   1     0.02   0.01   0.00    -0.01   0.00  -0.01     0.00  -0.01  -0.00
 116   1     0.03   0.00  -0.01    -0.01   0.01  -0.01    -0.00  -0.00  -0.00
 117   1    -0.01   0.00  -0.00     0.05  -0.00  -0.04     0.05  -0.01  -0.00
 118   1    -0.00   0.01  -0.00     0.04  -0.03  -0.03     0.03  -0.02  -0.01
 119   1     0.02   0.01  -0.01     0.01  -0.01  -0.01     0.01  -0.01  -0.01
 120   1     0.02   0.00  -0.01     0.01  -0.01  -0.01     0.01  -0.00  -0.00
 121   1    -0.00  -0.01   0.01     0.00   0.00   0.01     0.01   0.02   0.03
 122   1     0.00  -0.01   0.02     0.01   0.02   0.03     0.00   0.01   0.01
 123   1    -0.01  -0.01   0.01     0.00  -0.01  -0.00    -0.00   0.01   0.02
 124   1    -0.00  -0.00   0.01     0.00  -0.01   0.00     0.00   0.01   0.01
 125   1    -0.00  -0.00  -0.00     0.02  -0.00  -0.01    -0.00  -0.00   0.07
 126   1    -0.00  -0.00  -0.00     0.00  -0.01  -0.01    -0.00   0.03   0.06
 127   6    -0.24  -0.17  -0.01    -0.07   0.09  -0.03     0.05   0.02  -0.03
 128   6    -0.12  -0.18  -0.09    -0.05   0.07  -0.00     0.02   0.03  -0.03
 129   6     0.06  -0.14  -0.12    -0.04   0.03   0.00     0.00   0.03  -0.03
 130   6     0.12  -0.07   0.04    -0.05   0.04  -0.01     0.00   0.01  -0.04
 131   6     0.03  -0.06   0.13    -0.07   0.05  -0.04     0.03   0.01  -0.04
 132   6    -0.17  -0.09   0.16    -0.08   0.08  -0.04     0.04   0.00  -0.04
 133   6     0.29  -0.01   0.02    -0.06   0.02  -0.01    -0.02   0.01  -0.03
 134   7     0.28  -0.01  -0.00    -0.06   0.02   0.01    -0.03   0.01  -0.03
 135   1    -0.07  -0.06  -0.03    -0.02   0.02  -0.02     0.02   0.01  -0.00
 136   1    -0.11  -0.05   0.01    -0.02   0.03  -0.01     0.02   0.00  -0.01
 137   1    -0.04  -0.07  -0.06    -0.01   0.02   0.00     0.00   0.01  -0.01
 138   1    -0.03  -0.04  -0.01    -0.01   0.03   0.01     0.00   0.00  -0.01
 139   1     0.03  -0.04  -0.05    -0.01   0.00   0.01    -0.00   0.01  -0.01
 140   1     0.02  -0.05  -0.05    -0.02   0.00  -0.00     0.00   0.01  -0.01
 141   1     0.03  -0.02   0.03    -0.01   0.02  -0.00    -0.00   0.00  -0.01
 142   1     0.01  -0.02   0.02    -0.02   0.01  -0.02     0.01   0.01  -0.01
 143   1     0.02  -0.00   0.07    -0.02   0.02  -0.01     0.01  -0.00  -0.01
 144   1    -0.05  -0.02   0.07    -0.02   0.03  -0.01     0.01  -0.00  -0.02
 145   1    -0.07  -0.03   0.06    -0.03   0.03  -0.02     0.02  -0.00  -0.01
 146   1     0.10   0.01  -0.02    -0.02   0.00  -0.00    -0.00   0.00  -0.01
 147   1     0.11  -0.01   0.04    -0.02   0.00  -0.01    -0.01   0.00  -0.01
 148   1     0.09   0.00  -0.00    -0.02   0.00   0.00    -0.02   0.00  -0.01
 149   1     0.06   0.00  -0.02    -0.01   0.00   0.01    -0.00   0.00  -0.00
 150   1     0.07  -0.01   0.01    -0.01   0.01  -0.01    -0.01   0.00  -0.01
                      4                      5                      6
                        a                      a                      a 
 Frequencies --    25.7272                36.5744                42.5929
 Red. masses --    11.3341                12.2980                12.5570
 Frc consts  --     0.0000                 0.0000                 0.0000
 IR Inten    --     0.3730                 3.4129                 1.0785
 Raman Activ --     0.0000                 0.0000                 0.0000
 Depolar     --     0.0000                 0.0000                 0.0000
 Atom AN      X      Y      Z        X      Y      Z        X      Y      Z
   1   7     0.00   0.02  -0.02    -0.01  -0.05  -0.05     0.04  -0.01   0.01
   2   6     0.01   0.03   0.00     0.00  -0.05  -0.08     0.00  -0.02   0.01
   3   6     0.01   0.05   0.03     0.00  -0.03  -0.04     0.00  -0.06   0.02
   4   7     0.00   0.05  -0.00    -0.01  -0.02  -0.01     0.03  -0.05   0.08
   5   6    -0.00   0.02  -0.05    -0.01  -0.02  -0.00     0.05  -0.03   0.06
   6   7     0.04   0.01   0.01     0.04  -0.04  -0.12    -0.02  -0.01   0.01
   7   6     0.06  -0.01   0.08     0.06  -0.03  -0.08    -0.03  -0.02  -0.01
   8   7     0.05   0.02   0.09     0.05  -0.02  -0.04    -0.02  -0.03  -0.03
   9   8    -0.01   0.00  -0.12    -0.02  -0.01   0.05     0.09  -0.02   0.10
  10   8     0.09  -0.05   0.16     0.11  -0.03  -0.10    -0.06  -0.02  -0.01
  11   7    -0.00   0.05  -0.00     0.01   0.02   0.02     0.01  -0.04   0.04
  12   6     0.02   0.06   0.03     0.04   0.03   0.03    -0.01  -0.04  -0.04
  13   6     0.00   0.05   0.01     0.05   0.05   0.04    -0.04   0.01  -0.06
  14   7    -0.03   0.03  -0.03     0.00   0.04   0.02    -0.10   0.01  -0.04
  15   6    -0.03   0.03  -0.03    -0.02   0.02   0.01    -0.05  -0.02   0.03
  16   7     0.05   0.03   0.08     0.08   0.01   0.02    -0.03  -0.02  -0.06
  17   6     0.05  -0.02   0.09     0.10   0.00   0.03    -0.03  -0.00  -0.06
  18   7     0.01   0.01   0.05     0.11   0.02   0.05    -0.04   0.01  -0.06
  19   8    -0.07   0.03  -0.07    -0.07   0.01  -0.00    -0.07  -0.02   0.08
  20   8     0.10  -0.09   0.16     0.15  -0.02   0.02    -0.04  -0.00  -0.08
  21   7    -0.01   0.02  -0.01    -0.08   0.06   0.01     0.04   0.03  -0.03
  22   6     0.01   0.02  -0.02    -0.10   0.08  -0.02    -0.02   0.03   0.01
  23   6     0.00   0.03  -0.02    -0.06   0.09  -0.01    -0.06  -0.00  -0.01
  24   7     0.02   0.03  -0.00     0.00   0.06   0.03    -0.09   0.01  -0.06
  25   6    -0.00   0.03   0.00    -0.01   0.03   0.04    -0.01   0.02  -0.07
  26   7     0.03   0.02  -0.03    -0.16   0.06  -0.03    -0.05   0.02   0.01
  27   6     0.00   0.02  -0.05    -0.13   0.05  -0.00    -0.06   0.01   0.00
  28   7    -0.01   0.03  -0.04    -0.10   0.06  -0.00    -0.06   0.00  -0.00
  29   8    -0.02   0.03   0.02     0.05   0.01   0.08     0.01   0.02  -0.12
  30   8    -0.01   0.02  -0.08    -0.16   0.05   0.01    -0.08   0.00   0.01
  31   7     0.03   0.02  -0.01     0.00  -0.02  -0.03     0.03   0.01   0.05
  32   6     0.01   0.01  -0.01    -0.01  -0.05   0.01     0.00   0.00   0.03
  33   6     0.00  -0.01  -0.01    -0.01  -0.03   0.02     0.06   0.05  -0.04
  34   7     0.04   0.02  -0.04    -0.02  -0.01   0.00     0.09   0.05  -0.03
  35   6     0.05   0.03  -0.02    -0.00   0.01  -0.04     0.07   0.02   0.01
  36   7    -0.01   0.03  -0.02    -0.03  -0.05   0.06     0.01  -0.00   0.12
  37   6    -0.04   0.02  -0.00    -0.01  -0.04   0.06     0.09   0.02   0.09
  38   7    -0.04   0.01   0.01    -0.01  -0.03   0.05     0.15   0.04  -0.04
  39   8     0.08   0.05  -0.04     0.01   0.04  -0.09     0.09   0.02   0.03
  40   8    -0.06   0.03  -0.01    -0.00  -0.04   0.09     0.13   0.03   0.17
  41   7    -0.02   0.03  -0.02    -0.02   0.04   0.01    -0.04   0.07  -0.02
  42   6    -0.03   0.01   0.00     0.03   0.05   0.02     0.00   0.06   0.01
  43   6    -0.02  -0.02  -0.00     0.00   0.03   0.02     0.10   0.07   0.01
  44   7     0.02  -0.00  -0.03    -0.03   0.02   0.01     0.10   0.07  -0.03
  45   6     0.01   0.02  -0.03    -0.05   0.02   0.00     0.01   0.06  -0.04
  46   7    -0.05   0.02   0.03     0.09   0.02   0.04    -0.02   0.08  -0.04
  47   6    -0.05   0.01   0.03     0.07  -0.01   0.06     0.04   0.09  -0.07
  48   7    -0.05  -0.01   0.02     0.02   0.01   0.05     0.15   0.07  -0.05
  49   8     0.04   0.04  -0.06    -0.10   0.00  -0.01    -0.02   0.07  -0.07
  50   8    -0.06   0.01   0.04     0.11  -0.03   0.09     0.01   0.14  -0.14
  51   6     0.02   0.04   0.01     0.05   0.06   0.04    -0.07  -0.04  -0.08
  52   6     0.06   0.05   0.11     0.06  -0.00   0.00    -0.02  -0.03  -0.06
  53   6    -0.02   0.05  -0.04    -0.08   0.05   0.00    -0.06  -0.02  -0.00
  54   6    -0.00   0.06  -0.01    -0.01  -0.00   0.01     0.04  -0.08   0.07
  55   7    -0.00   0.02  -0.01    -0.03  -0.02  -0.01     0.07   0.03  -0.02
  56   6     0.03  -0.01  -0.02    -0.00  -0.03  -0.03     0.03   0.05  -0.01
  57   6     0.02  -0.01  -0.02    -0.06   0.01   0.01     0.04   0.06  -0.01
  58   7     0.00   0.00  -0.02    -0.06   0.02   0.01     0.10   0.03  -0.04
  59   6    -0.01   0.02  -0.01    -0.04  -0.00  -0.00     0.11   0.01  -0.03
  60   7     0.06   0.01  -0.04     0.04  -0.01  -0.11    -0.01   0.04   0.00
  61   6     0.03  -0.00  -0.02    -0.02   0.03  -0.11    -0.04   0.02   0.01
  62   7     0.03   0.00  -0.03    -0.12   0.03  -0.04    -0.02   0.04   0.01
  63   8    -0.03   0.03  -0.01    -0.04  -0.00   0.00     0.18  -0.03  -0.06
  64   8     0.01  -0.01  -0.02     0.01   0.07  -0.21    -0.09   0.01   0.03
  65   6    -0.00   0.02  -0.02    -0.01  -0.04  -0.02     0.06   0.02  -0.01
  66   6     0.05   0.00  -0.03     0.05  -0.06  -0.14    -0.03   0.02   0.01
  67   6     0.03   0.01  -0.03    -0.16   0.07  -0.03    -0.04   0.04   0.02
  68   6    -0.02   0.00  -0.01    -0.06   0.03   0.02     0.10   0.05  -0.02
  69   6    -0.03   0.04  -0.02    -0.03   0.06   0.01    -0.10   0.06  -0.00
  70   6    -0.02   0.02   0.02     0.13   0.03   0.05    -0.05   0.03  -0.07
  71   6     0.05  -0.01  -0.04    -0.03   0.01   0.00     0.10   0.04  -0.04
  72   6    -0.06  -0.01   0.02     0.00  -0.01   0.05     0.18   0.09  -0.05
  73   7    -0.01   0.04  -0.04    -0.02  -0.02   0.07     0.01  -0.08   0.08
  74   6     0.01   0.05  -0.01    -0.01  -0.02   0.02     0.03  -0.07   0.05
  75   6     0.01   0.06  -0.01    -0.01   0.02   0.03    -0.00  -0.05  -0.01
  76   7    -0.01   0.05  -0.04    -0.06   0.02   0.03    -0.04  -0.06  -0.00
  77   6    -0.02   0.04  -0.04    -0.05  -0.00   0.06    -0.04  -0.07   0.03
  78   7     0.02   0.03   0.01     0.00   0.00  -0.03     0.02  -0.09   0.10
  79   6     0.03   0.03   0.01     0.04   0.02  -0.01    -0.03  -0.06   0.04
  80   7     0.02   0.04   0.01     0.04   0.02   0.04    -0.05  -0.05  -0.03
  81   8    -0.03   0.04  -0.07    -0.08   0.00   0.10    -0.09  -0.10   0.03
  82   8     0.05   0.02   0.03     0.07   0.03  -0.03    -0.07  -0.07   0.05
  83   6    -0.01   0.04  -0.03    -0.03  -0.06   0.07     0.03  -0.08   0.11
  84   6     0.02   0.03   0.00     0.01  -0.03  -0.06    -0.01  -0.02   0.08
  85   1    -0.00   0.01  -0.00    -0.01  -0.03  -0.03    -0.00  -0.00   0.00
  86   1    -0.00   0.03   0.01    -0.01  -0.01  -0.01    -0.00  -0.03   0.00
  87   1     0.01   0.03   0.01     0.01   0.01   0.01     0.00  -0.02  -0.02
  88   1     0.00   0.02  -0.00     0.02   0.03   0.02    -0.01   0.01  -0.02
  89   1     0.00  -0.00  -0.01    -0.03   0.03  -0.01    -0.00   0.02   0.01
  90   1     0.00   0.01  -0.00    -0.01   0.04  -0.01    -0.02  -0.01   0.00
  91   1     0.00   0.00  -0.00    -0.00  -0.03   0.00    -0.02  -0.01   0.00
  92   1     0.00  -0.01  -0.01    -0.00  -0.01   0.01     0.01   0.03  -0.03
  93   1    -0.01   0.00   0.00     0.01   0.03   0.00    -0.01   0.02   0.02
  94   1    -0.01  -0.01   0.00    -0.00   0.01   0.00     0.04   0.02   0.02
  95   1     0.01   0.02   0.00     0.01   0.03   0.01    -0.01  -0.02  -0.03
  96   1     0.01   0.01   0.01     0.03   0.01   0.02    -0.03  -0.01  -0.03
  97   1     0.02   0.03   0.03     0.01   0.00   0.00    -0.00  -0.02  -0.02
  98   1     0.02   0.01   0.04     0.02  -0.00   0.00    -0.01  -0.01  -0.02
  99   1    -0.01   0.01  -0.02    -0.03   0.01   0.00    -0.03  -0.01   0.00
 100   1    -0.01   0.02  -0.01    -0.02   0.02  -0.00    -0.02   0.00  -0.00
 101   1    -0.01   0.02  -0.01    -0.01  -0.00   0.01     0.02  -0.02   0.04
 102   1    -0.00   0.02  -0.00    -0.01  -0.00   0.00     0.01  -0.04   0.01
 103   1     0.01  -0.01  -0.01     0.01  -0.02   0.00     0.01   0.02  -0.00
 104   1     0.01  -0.01  -0.00    -0.02   0.01   0.02     0.01   0.03  -0.00
 105   1     0.00   0.00  -0.00     0.00  -0.02  -0.00     0.01   0.01  -0.01
 106   1    -0.00   0.00  -0.00    -0.00  -0.01   0.00     0.03   0.00  -0.00
 107   1     0.02   0.00  -0.01     0.02  -0.01  -0.06    -0.02   0.01   0.00
 108   1     0.01  -0.00  -0.01     0.01  -0.04  -0.04    -0.01   0.01   0.00
 109   1     0.01   0.00  -0.01    -0.06   0.02  -0.01    -0.02   0.01   0.01
 110   1     0.01  -0.00  -0.01    -0.04   0.03   0.00    -0.01   0.02   0.01
 111   1    -0.00  -0.01  -0.00    -0.02   0.01   0.01     0.03   0.03   0.01
 112   1    -0.01   0.00   0.00    -0.02   0.01   0.01     0.04   0.01  -0.01
 113   1    -0.01   0.01  -0.01    -0.02   0.02  -0.00    -0.04   0.01   0.00
 114   1    -0.01   0.01  -0.00    -0.00   0.03   0.00    -0.03   0.03   0.01
 115   1    -0.00   0.01  -0.00     0.04   0.03   0.02    -0.01  -0.00  -0.02
 116   1    -0.00   0.00   0.01     0.05   0.00   0.02    -0.02   0.01  -0.03
 117   1     0.02   0.00  -0.01    -0.01   0.00  -0.00     0.03   0.02  -0.02
 118   1     0.01  -0.01  -0.01    -0.01   0.00   0.00     0.03   0.00  -0.01
 119   1    -0.02  -0.01   0.00    -0.00  -0.00   0.01     0.05   0.05  -0.01
 120   1    -0.02  -0.00   0.01     0.00  -0.00   0.02     0.07   0.02  -0.02
 121   1     0.00   0.02  -0.00    -0.00  -0.02   0.00     0.03  -0.02   0.01
 122   1     0.00   0.02  -0.00    -0.00   0.02   0.01     0.01  -0.02  -0.02
 123   1     0.00   0.01  -0.01    -0.01  -0.03   0.02     0.01  -0.04   0.03
 124   1    -0.00   0.01  -0.01    -0.01  -0.02   0.03     0.02  -0.02   0.05
 125   1     0.01   0.01   0.00     0.01  -0.00  -0.03    -0.01  -0.01   0.03
 126   1     0.00   0.01   0.00     0.00  -0.02  -0.02    -0.01   0.00   0.02
 127   6    -0.02  -0.37   0.12     0.12   0.08  -0.07     0.02  -0.05   0.04
 128   6     0.07  -0.37   0.03     0.07   0.06   0.04    -0.00  -0.05   0.06
 129   6    -0.00  -0.27   0.04     0.04  -0.05   0.05    -0.06  -0.06   0.07
 130   6    -0.06  -0.13   0.01     0.03  -0.13  -0.00    -0.10  -0.05   0.01
 131   6    -0.16  -0.12   0.08     0.09  -0.12  -0.10    -0.09  -0.05  -0.01
 132   6    -0.10  -0.20   0.08     0.12  -0.02  -0.11    -0.02  -0.04  -0.02
 133   6    -0.10  -0.06   0.00    -0.01  -0.20   0.01    -0.17  -0.06   0.02
 134   7    -0.06  -0.04  -0.06     0.05  -0.22   0.05    -0.11  -0.05   0.01
 135   1    -0.03  -0.12   0.06     0.04   0.03  -0.03     0.00  -0.02   0.02
 136   1     0.01  -0.13   0.03     0.04   0.04  -0.02     0.02  -0.01   0.01
 137   1     0.04  -0.14   0.02     0.02   0.04   0.02     0.01  -0.02   0.03
 138   1     0.04  -0.10  -0.02     0.01   0.02   0.02     0.00  -0.02   0.01
 139   1     0.01  -0.08  -0.00     0.00  -0.02   0.04    -0.02  -0.02   0.02
 140   1    -0.02  -0.09   0.04     0.01  -0.02   0.00    -0.02  -0.02   0.03
 141   1     0.00  -0.03  -0.02     0.01  -0.04   0.01    -0.02  -0.01  -0.01
 142   1    -0.06  -0.05   0.05     0.03  -0.03  -0.04    -0.03  -0.02   0.01
 143   1    -0.06  -0.01   0.02     0.03  -0.06  -0.04    -0.03  -0.01  -0.02
 144   1    -0.01  -0.04   0.00     0.03  -0.01  -0.02    -0.00  -0.01  -0.02
 145   1    -0.05  -0.06   0.04     0.05  -0.00  -0.06    -0.01  -0.01  -0.01
 146   1    -0.04  -0.02   0.02    -0.01  -0.08   0.01    -0.07  -0.04   0.02
 147   1    -0.04  -0.00   0.00    -0.02  -0.05  -0.01    -0.07  -0.00  -0.01
 148   1    -0.01  -0.00  -0.02     0.02  -0.06   0.02    -0.07  -0.02   0.01
 149   1    -0.01  -0.02  -0.03     0.02  -0.07   0.02     0.01  -0.03   0.03
 150   1    -0.01  -0.01  -0.02     0.02  -0.05   0.02    -0.01   0.01  -0.04
                      7                      8                      9
                        a                      a                      a 
 Frequencies --    45.7392                46.0989                52.7108
 Red. masses --    13.0950                11.7746                12.8024
 Frc consts  --     0.0000                 0.0000                 0.0000
 IR Inten    --     0.1028                 6.9254                 2.6820
 Raman Activ --     0.0000                 0.0000                 0.0000
 Depolar     --     0.0000                 0.0000                 0.0000
 Atom AN      X      Y      Z        X      Y      Z        X      Y      Z
   1   7     0.07   0.02  -0.12    -0.06   0.02   0.03     0.00   0.00  -0.05
   2   6     0.00   0.04  -0.03    -0.03   0.03   0.05     0.01   0.01  -0.04
   3   6    -0.01  -0.01   0.02    -0.03   0.02  -0.04     0.01   0.01  -0.05
   4   7     0.06  -0.02   0.07    -0.05   0.03  -0.05     0.01   0.00  -0.09
   5   6     0.09  -0.01  -0.05    -0.06   0.02  -0.02     0.00  -0.00  -0.08
   6   7    -0.02   0.01   0.03    -0.09   0.01   0.12     0.01   0.00  -0.04
   7   6    -0.02  -0.01   0.03    -0.11   0.01   0.04     0.00  -0.01  -0.02
   8   7    -0.02  -0.01   0.01    -0.08   0.04  -0.08     0.01  -0.01  -0.03
   9   8     0.17  -0.03  -0.09    -0.09   0.02  -0.04    -0.00  -0.01  -0.12
  10   8    -0.04  -0.02   0.05    -0.18   0.00   0.07    -0.00  -0.03  -0.00
  11   7     0.06  -0.05   0.09    -0.07   0.00  -0.08     0.03  -0.01  -0.04
  12   6     0.02  -0.06   0.01    -0.08  -0.01  -0.05     0.02  -0.01  -0.01
  13   6    -0.02  -0.03  -0.02    -0.01  -0.02  -0.01     0.05  -0.04   0.02
  14   7    -0.04  -0.02   0.02     0.02  -0.02  -0.02     0.14  -0.03   0.03
  15   6     0.02  -0.03   0.08    -0.01  -0.01  -0.06     0.10  -0.01  -0.01
  16   7    -0.02  -0.03   0.00    -0.08   0.01  -0.09     0.01  -0.01  -0.02
  17   6    -0.04  -0.02  -0.00    -0.01  -0.02  -0.07     0.01   0.01  -0.02
  18   7    -0.05  -0.02  -0.02     0.02  -0.03  -0.03     0.03  -0.00  -0.00
  19   8     0.04  -0.03   0.15     0.01  -0.01  -0.09     0.16  -0.00  -0.02
  20   8    -0.06  -0.01  -0.00     0.03  -0.03  -0.10    -0.02   0.05  -0.05
  21   7    -0.16   0.01   0.01     0.06  -0.01   0.02     0.02  -0.03   0.02
  22   6    -0.04  -0.03  -0.02     0.07  -0.02   0.03    -0.02   0.01  -0.01
  23   6     0.06  -0.03   0.01     0.05  -0.02   0.03     0.04  -0.00   0.01
  24   7     0.04  -0.02   0.06     0.02  -0.01   0.01     0.11  -0.04   0.04
  25   6    -0.10   0.02   0.05     0.02   0.00   0.01     0.11  -0.06   0.05
  26   7    -0.01   0.00   0.04     0.11  -0.01   0.04    -0.09  -0.03   0.00
  27   6     0.04  -0.00   0.08     0.09  -0.01   0.02    -0.07  -0.05   0.03
  28   7     0.10  -0.01   0.07     0.06  -0.01   0.02     0.01  -0.04   0.03
  29   8    -0.21   0.05   0.09    -0.01   0.02  -0.01     0.21  -0.12   0.09
  30   8     0.05   0.00   0.13     0.10  -0.00   0.00    -0.14  -0.09   0.05
  31   7     0.05   0.07  -0.12    -0.01   0.05   0.01     0.01   0.02  -0.07
  32   6     0.04   0.03  -0.06    -0.00   0.05   0.01     0.03  -0.00  -0.00
  33   6     0.02   0.04  -0.03    -0.01   0.05   0.02     0.00   0.03   0.04
  34   7    -0.00   0.06  -0.05    -0.03   0.04   0.03    -0.10  -0.02   0.09
  35   6     0.02   0.08  -0.10    -0.03   0.03   0.02    -0.09  -0.01   0.00
  36   7     0.03   0.04  -0.04     0.01   0.05  -0.01     0.02  -0.00   0.04
  37   6     0.02   0.04  -0.03    -0.00   0.05  -0.00     0.04   0.00   0.03
  38   7     0.02   0.05  -0.03    -0.01   0.05   0.01     0.06   0.01  -0.02
  39   8     0.03   0.12  -0.16    -0.06   0.02   0.04    -0.17  -0.04   0.01
  40   8     0.02   0.05  -0.02    -0.00   0.05  -0.00     0.05   0.01   0.07
  41   7    -0.12  -0.01   0.00     0.07  -0.00   0.00     0.17   0.03   0.05
  42   6    -0.08   0.01   0.00     0.04   0.00  -0.02     0.06   0.01  -0.00
  43   6    -0.05   0.03   0.00     0.01   0.03  -0.01     0.02   0.06   0.01
  44   7    -0.12   0.00   0.00    -0.01   0.02   0.02    -0.03   0.04   0.07
  45   6    -0.14  -0.01   0.01     0.02   0.00   0.03     0.09   0.03   0.09
  46   7    -0.07  -0.00  -0.03     0.05   0.00  -0.02    -0.01   0.06  -0.00
  47   6    -0.02  -0.01  -0.04     0.04   0.00  -0.02    -0.03   0.09  -0.00
  48   7    -0.00   0.00  -0.03     0.03   0.02  -0.02     0.03   0.06  -0.00
  49   8    -0.22  -0.04   0.01     0.03  -0.00   0.06     0.14   0.04   0.16
  50   8     0.01  -0.03  -0.08     0.06  -0.01  -0.03    -0.11   0.17  -0.01
  51   6     0.09  -0.01   0.07    -0.01  -0.01   0.00     0.10  -0.01   0.06
  52   6    -0.02  -0.02   0.00    -0.10   0.00  -0.11     0.00  -0.01  -0.02
  53   6     0.11  -0.05   0.08     0.04  -0.00   0.01     0.02  -0.04   0.03
  54   6     0.06  -0.07   0.10    -0.05   0.03  -0.08     0.00   0.01  -0.07
  55   7     0.04   0.04  -0.09    -0.08   0.04   0.07    -0.04   0.01   0.01
  56   6     0.01   0.05   0.02    -0.07   0.04   0.05    -0.03   0.00   0.02
  57   6    -0.07   0.01   0.05    -0.00   0.01   0.01    -0.06   0.01   0.03
  58   7    -0.15   0.03   0.01    -0.01   0.03   0.03    -0.07   0.02   0.03
  59   6    -0.06   0.02  -0.09    -0.04   0.03   0.06    -0.05   0.02   0.02
  60   7    -0.02   0.04   0.03    -0.07   0.04   0.10    -0.01   0.01  -0.01
  61   6    -0.02   0.03   0.03     0.03   0.03   0.09    -0.05   0.02  -0.01
  62   7    -0.05   0.02   0.04     0.07   0.02   0.04    -0.08   0.02   0.01
  63   8    -0.06   0.02  -0.18    -0.04   0.04   0.08    -0.07   0.02   0.02
  64   8    -0.01   0.04   0.04     0.07   0.04   0.13    -0.07   0.02  -0.03
  65   6     0.10   0.07  -0.13    -0.06   0.02   0.07    -0.00   0.01  -0.00
  66   6    -0.02   0.04   0.03    -0.10   0.06   0.13     0.00   0.00  -0.03
  67   6    -0.03   0.01   0.04     0.11  -0.02   0.03    -0.11   0.02   0.02
  68   6    -0.20  -0.02   0.01     0.02   0.01   0.01    -0.03  -0.00   0.00
  69   6    -0.08   0.00  -0.00     0.06  -0.03   0.01     0.18  -0.05   0.06
  70   6    -0.06  -0.01  -0.03     0.05  -0.00  -0.02    -0.00   0.02  -0.03
  71   6    -0.05   0.03   0.02    -0.03   0.04   0.03    -0.11   0.05   0.08
  72   6     0.02   0.04  -0.03     0.01   0.04  -0.02     0.06   0.04   0.00
  73   7     0.03  -0.02  -0.03     0.01   0.03  -0.03     0.02  -0.05   0.01
  74   6     0.01  -0.02   0.01    -0.00   0.02  -0.01     0.00  -0.05  -0.01
  75   6     0.05  -0.03   0.07     0.00   0.00  -0.00     0.03  -0.04   0.03
  76   7     0.09  -0.04   0.06     0.03   0.01  -0.00     0.03  -0.04   0.04
  77   6     0.07  -0.03  -0.01     0.03   0.02  -0.02     0.01  -0.05  -0.01
  78   7     0.04  -0.02  -0.03    -0.01   0.03  -0.01     0.02  -0.01  -0.09
  79   6     0.09  -0.03   0.03    -0.02   0.03  -0.02     0.05   0.01  -0.07
  80   7     0.10  -0.05   0.10    -0.01   0.01  -0.01     0.07  -0.03   0.02
  81   8     0.09  -0.04  -0.06     0.04   0.02  -0.05    -0.02  -0.08  -0.07
  82   8     0.13  -0.04   0.03    -0.04   0.04  -0.03     0.05   0.06  -0.16
  83   6     0.03   0.02  -0.04     0.02   0.05  -0.02     0.03  -0.03   0.03
  84   6     0.01   0.01  -0.10    -0.01   0.04   0.00     0.01  -0.02  -0.12
  85   1    -0.01   0.03  -0.01     0.01   0.02   0.02     0.00   0.00  -0.01
  86   1    -0.01  -0.01   0.01     0.01   0.00  -0.02     0.01   0.01  -0.01
  87   1     0.01  -0.03  -0.01    -0.04  -0.00  -0.01    -0.00  -0.00   0.00
  88   1    -0.00  -0.01  -0.01    -0.01  -0.01   0.01     0.01  -0.03   0.01
  89   1    -0.02  -0.02  -0.03     0.02  -0.01   0.01    -0.01   0.02  -0.01
  90   1     0.03  -0.01  -0.01     0.01  -0.01   0.01     0.02   0.01  -0.01
  91   1     0.02  -0.00  -0.02     0.00   0.02   0.00     0.01  -0.01  -0.00
  92   1     0.01   0.01  -0.00    -0.00   0.02   0.01     0.01   0.03   0.02
  93   1    -0.02   0.01   0.01     0.01  -0.00  -0.01     0.02  -0.02  -0.01
  94   1    -0.01   0.02   0.01     0.00   0.01  -0.01     0.00   0.03  -0.00
  95   1     0.03   0.01   0.01    -0.01  -0.01   0.00     0.02   0.01   0.02
  96   1     0.04  -0.01   0.03    -0.01  -0.00  -0.00     0.04  -0.01   0.02
  97   1    -0.00  -0.01   0.00    -0.03  -0.02  -0.03    -0.00  -0.00  -0.01
  98   1    -0.01  -0.00   0.00    -0.04   0.01  -0.04     0.00  -0.00  -0.01
  99   1     0.04  -0.01   0.03     0.02  -0.00   0.00     0.01  -0.01   0.01
 100   1     0.03  -0.03   0.02     0.01  -0.00   0.01     0.01  -0.01   0.01
 101   1     0.03  -0.02   0.04    -0.02   0.01  -0.03    -0.00   0.00  -0.03
 102   1     0.01  -0.04   0.02    -0.01   0.02  -0.02    -0.00   0.01  -0.01
 103   1     0.02   0.03   0.02    -0.03   0.01   0.00    -0.00  -0.00   0.01
 104   1    -0.02  -0.01   0.03    -0.00  -0.00  -0.01    -0.02   0.01   0.02
 105   1     0.03   0.05  -0.03    -0.01  -0.00   0.02     0.01   0.00   0.00
 106   1     0.04   0.02  -0.06    -0.02   0.01   0.03    -0.00   0.00  -0.00
 107   1    -0.01   0.01   0.01    -0.04   0.01   0.05     0.00   0.00  -0.01
 108   1    -0.00   0.02   0.01    -0.03   0.04   0.03     0.00  -0.00  -0.01
 109   1    -0.01   0.00   0.01     0.05  -0.00   0.01    -0.05   0.00   0.01
 110   1    -0.01   0.01   0.01     0.03  -0.02   0.00    -0.03   0.02   0.01
 111   1    -0.06  -0.03  -0.00     0.01   0.01  -0.01    -0.01  -0.00  -0.01
 112   1    -0.08   0.00   0.00     0.01   0.00   0.00    -0.01  -0.00  -0.00
 113   1    -0.03  -0.00   0.00     0.03  -0.01   0.01     0.07  -0.01   0.03
 114   1    -0.02   0.01  -0.01     0.01  -0.02   0.01     0.05  -0.04   0.02
 115   1    -0.02  -0.01  -0.01     0.01   0.01  -0.00    -0.00  -0.00  -0.02
 116   1    -0.02  -0.00  -0.01     0.02  -0.00  -0.01    -0.01   0.01  -0.01
 117   1    -0.02   0.01   0.01    -0.01   0.01   0.02    -0.06   0.01   0.03
 118   1    -0.01   0.01   0.02    -0.01   0.02   0.01    -0.03   0.04   0.02
 119   1     0.01   0.02  -0.00    -0.00   0.01  -0.01     0.02   0.01   0.01
 120   1     0.01   0.01  -0.02     0.00   0.01  -0.01     0.02   0.01   0.00
 121   1    -0.01  -0.00   0.00    -0.00   0.01  -0.00    -0.01  -0.03  -0.01
 122   1     0.01  -0.01   0.03    -0.00  -0.00  -0.00     0.00  -0.01   0.02
 123   1     0.01   0.01  -0.01     0.01   0.02  -0.00     0.01  -0.01   0.01
 124   1     0.02   0.01  -0.02     0.01   0.01  -0.01     0.01  -0.01   0.01
 125   1    -0.00   0.01  -0.04    -0.01   0.01   0.00    -0.00   0.00  -0.05
 126   1    -0.01  -0.01  -0.03    -0.00   0.01   0.00     0.01  -0.03  -0.03
 127   6     0.10  -0.03   0.01     0.14   0.01  -0.07     0.04  -0.09   0.06
 128   6     0.05  -0.02   0.01     0.09  -0.01   0.06    -0.02  -0.06   0.01
 129   6     0.03  -0.00   0.01     0.03  -0.14   0.07    -0.11   0.03   0.02
 130   6     0.02  -0.02  -0.01     0.00  -0.21  -0.02    -0.14   0.05  -0.03
 131   6     0.05  -0.03  -0.01     0.06  -0.20  -0.13    -0.11   0.03   0.01
 132   6     0.08  -0.04  -0.02     0.12  -0.09  -0.15    -0.01  -0.05   0.00
 133   6    -0.01  -0.02  -0.01    -0.10  -0.27  -0.01    -0.21   0.07  -0.03
 134   7    -0.00  -0.02  -0.02    -0.01  -0.28  -0.01    -0.17   0.09  -0.04
 135   1     0.03  -0.00   0.02     0.04   0.00  -0.03     0.01  -0.02   0.05
 136   1     0.04  -0.02   0.00     0.05   0.03  -0.02     0.03  -0.05   0.01
 137   1     0.01   0.00   0.01     0.03   0.02   0.03     0.00  -0.02   0.01
 138   1     0.01  -0.01  -0.00     0.02  -0.00   0.03    -0.01  -0.03  -0.02
 139   1     0.00   0.00   0.00     0.00  -0.04   0.05    -0.04   0.02  -0.01
 140   1     0.01   0.00   0.01     0.01  -0.04   0.01    -0.03   0.02   0.03
 141   1     0.00  -0.01  -0.01     0.00  -0.06  -0.01    -0.04   0.01  -0.02
 142   1     0.01  -0.01   0.00     0.02  -0.06  -0.04    -0.04   0.01   0.03
 143   1     0.01  -0.01  -0.01     0.01  -0.08  -0.06    -0.04   0.01  -0.01
 144   1     0.02  -0.02  -0.01     0.03  -0.03  -0.04     0.00  -0.02  -0.03
 145   1     0.03  -0.01  -0.00     0.05  -0.02  -0.07     0.00  -0.02   0.01
 146   1    -0.00  -0.01   0.00    -0.05  -0.10   0.02    -0.07   0.01   0.01
 147   1    -0.01  -0.00  -0.01    -0.05  -0.06  -0.02    -0.07   0.03  -0.02
 148   1    -0.01  -0.00  -0.00    -0.00  -0.07  -0.00    -0.07   0.02  -0.01
 149   1     0.01  -0.01   0.00     0.01  -0.09  -0.00    -0.02   0.01   0.01
 150   1     0.00  -0.00  -0.02     0.01  -0.06  -0.01    -0.03   0.04  -0.04
                     10                     11                     12
                        a                      a                      a 
 Frequencies --    57.5024                58.9719                62.9226
 Red. masses --    12.9004                12.6042                13.4531
 Frc consts  --     0.0000                 0.0000                 0.0000
 IR Inten    --     0.5511                 3.4607                 0.6181
 Raman Activ --     0.0000                 0.0000                 0.0000
 Depolar     --     0.0000                 0.0000                 0.0000
 Atom AN      X      Y      Z        X      Y      Z        X      Y      Z
   1   7     0.00   0.00   0.01    -0.02  -0.05  -0.05    -0.03  -0.02   0.01
   2   6    -0.00   0.01   0.03    -0.01  -0.02   0.01    -0.02  -0.03  -0.02
   3   6    -0.00   0.03   0.08    -0.01  -0.03  -0.00    -0.02  -0.02  -0.02
   4   7     0.00   0.00   0.03    -0.02  -0.03  -0.00    -0.03   0.00   0.04
   5   6     0.01  -0.01  -0.02    -0.02  -0.04  -0.04    -0.03   0.01   0.06
   6   7     0.04   0.00   0.01    -0.02  -0.07   0.08    -0.01  -0.01  -0.05
   7   6     0.06  -0.00   0.07    -0.03  -0.06   0.05    -0.01  -0.00  -0.05
   8   7     0.04  -0.02   0.17    -0.02  -0.02  -0.02    -0.01   0.01  -0.06
   9   8     0.01  -0.03  -0.08    -0.03  -0.06  -0.08    -0.04   0.03   0.14
  10   8     0.11  -0.00   0.08    -0.05  -0.09   0.09    -0.00  -0.00  -0.05
  11   7    -0.00   0.01   0.03    -0.03  -0.03  -0.02    -0.08  -0.03  -0.05
  12   6     0.01   0.01   0.03    -0.03  -0.02  -0.03    -0.02  -0.00  -0.02
  13   6    -0.07   0.00  -0.03    -0.02  -0.01  -0.02    -0.02   0.01  -0.02
  14   7    -0.05   0.01   0.00    -0.02  -0.01  -0.00    -0.09  -0.01  -0.06
  15   6    -0.03   0.01   0.02    -0.02  -0.02  -0.00    -0.10  -0.03  -0.06
  16   7     0.01  -0.01   0.12    -0.03  -0.03  -0.04     0.03  -0.05  -0.01
  17   6    -0.11   0.01   0.09     0.02  -0.05  -0.02     0.08  -0.10   0.02
  18   7    -0.19   0.04  -0.02    -0.01  -0.01  -0.03     0.04  -0.05   0.00
  19   8    -0.03   0.01   0.03    -0.01  -0.02   0.01    -0.15  -0.04  -0.08
  20   8    -0.17   0.01   0.16     0.08  -0.11  -0.01     0.18  -0.20   0.06
  21   7     0.03  -0.02   0.02    -0.03   0.03   0.01    -0.02   0.03  -0.00
  22   6    -0.01   0.01   0.01    -0.01   0.02   0.01    -0.01   0.02  -0.00
  23   6    -0.00   0.00   0.01    -0.04   0.04   0.00     0.05  -0.01   0.01
  24   7     0.02  -0.01   0.02    -0.02   0.03   0.01    -0.02   0.02  -0.01
  25   6     0.05  -0.03   0.02    -0.03   0.03   0.01    -0.06   0.05  -0.02
  26   7    -0.06  -0.02   0.00     0.04   0.04  -0.01    -0.06   0.02   0.05
  27   6    -0.06  -0.03   0.01     0.02   0.05  -0.03     0.04   0.03   0.11
  28   7    -0.02  -0.01   0.02    -0.06   0.04  -0.04     0.13   0.02   0.11
  29   8     0.11  -0.06   0.03    -0.05   0.05   0.01    -0.14   0.10  -0.03
  30   8    -0.11  -0.06   0.01     0.08   0.09  -0.04     0.07   0.04   0.20
  31   7    -0.03  -0.04   0.05    -0.02  -0.05  -0.01    -0.03  -0.08   0.03
  32   6     0.01   0.02  -0.01    -0.01  -0.05   0.01     0.02  -0.01  -0.04
  33   6     0.03   0.03  -0.04     0.01  -0.01  -0.00     0.02  -0.02  -0.04
  34   7     0.00  -0.02   0.01    -0.04  -0.04   0.02     0.02  -0.04  -0.03
  35   6    -0.04  -0.08   0.08    -0.05  -0.06   0.01    -0.03  -0.10   0.04
  36   7     0.05  -0.00  -0.04     0.01  -0.06   0.05     0.06  -0.03  -0.12
  37   6     0.09  -0.01  -0.08     0.07  -0.05   0.01     0.01  -0.02  -0.07
  38   7     0.10   0.00  -0.10     0.08  -0.03  -0.03    -0.00  -0.03  -0.05
  39   8    -0.12  -0.18   0.18    -0.09  -0.09   0.03    -0.10  -0.21   0.14
  40   8     0.14  -0.03  -0.12     0.12  -0.07   0.02    -0.02  -0.01  -0.07
  41   7    -0.05   0.01   0.01    -0.01  -0.02   0.00    -0.01   0.03  -0.04
  42   6    -0.10  -0.02   0.02     0.03   0.00   0.00    -0.01   0.02  -0.02
  43   6    -0.01  -0.00   0.02     0.04   0.02   0.00    -0.00  -0.00  -0.02
  44   7     0.01   0.01   0.01    -0.02  -0.01   0.01     0.07   0.03  -0.04
  45   6     0.01   0.03  -0.00    -0.07  -0.04   0.01     0.06   0.05  -0.05
  46   7    -0.20   0.04  -0.03     0.04  -0.01  -0.03    -0.01   0.02   0.00
  47   6    -0.06   0.01  -0.08     0.07  -0.01  -0.04    -0.03   0.03   0.01
  48   7     0.01   0.01  -0.05     0.11  -0.01  -0.03    -0.07   0.03   0.00
  49   8     0.08   0.07  -0.02    -0.18  -0.08   0.01     0.14   0.09  -0.08
  50   8    -0.01  -0.02  -0.17     0.09  -0.01  -0.07    -0.05   0.03   0.03
  51   6    -0.01   0.00   0.02     0.01   0.01   0.00    -0.02  -0.00  -0.03
  52   6     0.05   0.02   0.17    -0.02  -0.03  -0.03    -0.01  -0.01  -0.01
  53   6     0.02   0.00   0.02    -0.09   0.02  -0.04     0.16  -0.04   0.13
  54   6    -0.00   0.01   0.03    -0.02  -0.02  -0.01    -0.02  -0.02  -0.01
  55   7    -0.01   0.02   0.03    -0.08   0.07   0.05    -0.03  -0.01   0.01
  56   6     0.03  -0.00   0.01    -0.01   0.02   0.00    -0.03   0.00   0.02
  57   6     0.01   0.01   0.02     0.01   0.02  -0.01    -0.06   0.02   0.03
  58   7    -0.00   0.01   0.03    -0.05   0.06   0.03    -0.01  -0.01  -0.00
  59   6    -0.01   0.03   0.03    -0.11   0.10   0.07     0.02  -0.04  -0.02
  60   7     0.07   0.02  -0.03     0.06   0.05  -0.01    -0.03   0.00  -0.01
  61   6     0.04   0.02  -0.03     0.11   0.07  -0.02    -0.06   0.01  -0.01
  62   7    -0.01   0.01   0.00     0.10   0.06  -0.02    -0.14  -0.00   0.04
  63   8    -0.04   0.04   0.05    -0.22   0.18   0.15     0.09  -0.09  -0.06
  64   8     0.06   0.04  -0.05     0.22   0.12  -0.05    -0.05   0.04  -0.05
  65   6     0.01   0.01   0.02    -0.02  -0.01   0.03    -0.02  -0.01   0.01
  66   6     0.05  -0.01  -0.03    -0.03   0.00   0.01    -0.01  -0.01  -0.04
  67   6    -0.05   0.01   0.02     0.09   0.02  -0.01    -0.12   0.03   0.02
  68   6     0.01   0.00   0.01    -0.05   0.03   0.01    -0.00   0.01   0.01
  69   6    -0.04   0.01   0.00    -0.02  -0.00   0.00    -0.06   0.02  -0.02
  70   6    -0.24   0.00  -0.04     0.02  -0.01  -0.02     0.04   0.00  -0.01
  71   6     0.01  -0.00  -0.00    -0.05  -0.00   0.02     0.04  -0.01  -0.06
  72   6     0.09   0.03  -0.06     0.11   0.01  -0.03    -0.04  -0.02   0.01
  73   7     0.04   0.03   0.07     0.01  -0.03   0.08     0.06   0.02  -0.00
  74   6     0.01   0.01   0.03     0.00  -0.04   0.00     0.01  -0.00   0.01
  75   6     0.01   0.01   0.03    -0.02  -0.01  -0.02     0.03  -0.04   0.05
  76   7     0.03   0.02   0.05    -0.08  -0.02  -0.05     0.13  -0.00   0.11
  77   6     0.02   0.02   0.04    -0.05  -0.02   0.04     0.10   0.01   0.02
  78   7    -0.02   0.05   0.00    -0.02  -0.01  -0.04    -0.02   0.03  -0.02
  79   6    -0.03   0.07  -0.03    -0.00  -0.01  -0.02    -0.04   0.06  -0.06
  80   7    -0.01   0.03   0.00     0.01  -0.03   0.01    -0.01   0.01  -0.01
  81   8     0.02   0.01   0.01    -0.08  -0.03   0.07     0.14   0.01  -0.00
  82   8    -0.08   0.13  -0.09     0.00  -0.00  -0.04    -0.10   0.15  -0.17
  83   6     0.01   0.01   0.02    -0.01  -0.08   0.08     0.02   0.02  -0.07
  84   6     0.01   0.02   0.04    -0.00  -0.04  -0.03     0.01  -0.01   0.01
  85   1    -0.01   0.00   0.00     0.00   0.01   0.01    -0.01  -0.01  -0.01
  86   1    -0.01   0.02   0.03     0.00  -0.01  -0.00    -0.01  -0.02  -0.01
  87   1     0.02   0.01  -0.00    -0.01  -0.01  -0.01    -0.00   0.01  -0.00
  88   1    -0.02  -0.01  -0.03    -0.01  -0.00  -0.00    -0.00   0.02  -0.00
  89   1    -0.00   0.01   0.00    -0.00  -0.00   0.01    -0.01   0.01  -0.01
  90   1     0.00   0.00   0.00    -0.02   0.02   0.01     0.02  -0.02  -0.01
  91   1    -0.01   0.02   0.00    -0.01  -0.02  -0.00     0.01   0.02  -0.00
  92   1     0.01   0.03  -0.01     0.00   0.01  -0.00     0.00  -0.01  -0.01
  93   1    -0.04  -0.03   0.02     0.01   0.01   0.00    -0.00   0.01  -0.00
  94   1     0.01  -0.00   0.02     0.02   0.02   0.01    -0.00  -0.02  -0.01
  95   1    -0.01  -0.00   0.01     0.00   0.01  -0.00    -0.01  -0.01  -0.01
  96   1    -0.01   0.00   0.01     0.01   0.00  -0.00    -0.01   0.00  -0.02
  97   1     0.02   0.03   0.05    -0.00  -0.01  -0.01    -0.01  -0.00   0.00
  98   1     0.02  -0.00   0.07    -0.01  -0.01  -0.01    -0.00  -0.01  -0.00
  99   1     0.01   0.00   0.01    -0.04   0.00  -0.01     0.06  -0.00   0.05
 100   1     0.01   0.00   0.00    -0.03   0.02  -0.01     0.05  -0.04   0.03
 101   1    -0.00   0.00   0.01    -0.00  -0.01  -0.00    -0.00  -0.00  -0.00
 102   1    -0.00   0.00   0.01    -0.00  -0.01  -0.00     0.00  -0.01  -0.01
 103   1     0.01  -0.01   0.01    -0.01  -0.01  -0.00    -0.00  -0.00   0.01
 104   1     0.00   0.00   0.01     0.00  -0.01  -0.01    -0.02   0.02   0.02
 105   1     0.00   0.00   0.01     0.00  -0.01   0.01    -0.01  -0.00   0.00
 106   1     0.00   0.00   0.01    -0.00  -0.00   0.02    -0.00  -0.00   0.00
 107   1     0.02   0.00  -0.02    -0.02   0.00   0.00    -0.00  -0.00  -0.02
 108   1     0.01  -0.01  -0.01    -0.02   0.01  -0.00     0.00  -0.01  -0.01
 109   1    -0.02   0.00   0.01     0.04   0.01  -0.00    -0.05   0.00   0.01
 110   1    -0.01   0.01   0.01     0.03  -0.01   0.00    -0.03   0.03  -0.00
 111   1     0.00   0.00  -0.00    -0.02   0.00  -0.00    -0.00   0.01   0.00
 112   1     0.00   0.00   0.00    -0.02   0.01   0.00     0.00   0.00   0.00
 113   1    -0.01   0.00   0.00    -0.01  -0.00  -0.00    -0.03   0.00  -0.01
 114   1    -0.01   0.00   0.00    -0.01   0.00   0.00    -0.02   0.01   0.00
 115   1    -0.07  -0.03  -0.02     0.00  -0.00   0.00     0.02   0.01  -0.01
 116   1    -0.09   0.02  -0.02     0.01  -0.00  -0.01     0.02  -0.01  -0.00
 117   1     0.00  -0.00  -0.00    -0.03  -0.00   0.01     0.01  -0.00  -0.02
 118   1     0.00  -0.00  -0.00    -0.01   0.01   0.01     0.01  -0.01  -0.02
 119   1     0.03   0.02  -0.00     0.03   0.02  -0.01    -0.01  -0.02   0.01
 120   1     0.04   0.01  -0.03     0.05  -0.00  -0.01    -0.02  -0.00   0.01
 121   1     0.00  -0.00   0.01     0.01  -0.03  -0.00    -0.01  -0.00   0.00
 122   1     0.00  -0.01   0.01    -0.00   0.01  -0.01     0.01  -0.03   0.02
 123   1    -0.01   0.00   0.00    -0.00  -0.04   0.02    -0.00   0.02  -0.02
 124   1    -0.00   0.00   0.01    -0.01  -0.02   0.04    -0.00   0.01  -0.03
 125   1     0.01   0.00   0.02     0.00  -0.01  -0.01     0.01  -0.01   0.01
 126   1     0.01   0.01   0.01     0.00  -0.02  -0.01     0.01   0.00   0.00
 127   6     0.02   0.03  -0.14     0.07  -0.05   0.05     0.14  -0.03   0.09
 128   6     0.01   0.02  -0.11     0.22  -0.09   0.02     0.14  -0.02   0.08
 129   6     0.05  -0.03  -0.11     0.15  -0.06   0.02     0.06   0.01   0.09
 130   6     0.07  -0.08  -0.10     0.07   0.13  -0.03     0.00   0.06   0.02
 131   6     0.09  -0.08  -0.13    -0.11   0.18  -0.01    -0.03   0.07   0.02
 132   6     0.05  -0.03  -0.12    -0.03   0.14  -0.02     0.07   0.04   0.01
 133   6     0.08  -0.09  -0.10     0.03   0.14  -0.02    -0.06   0.06   0.03
 134   7     0.08  -0.10  -0.11     0.07   0.15  -0.02    -0.01   0.07   0.03
 135   1     0.01   0.01  -0.06    -0.01  -0.04   0.04     0.03  -0.01   0.05
 136   1    -0.00   0.02  -0.04     0.04  -0.02   0.01     0.07  -0.02   0.02
 137   1    -0.00   0.02  -0.04     0.08  -0.06   0.01     0.05  -0.02   0.04
 138   1    -0.01   0.00  -0.02     0.09  -0.00  -0.01     0.05  -0.01   0.01
 139   1     0.01  -0.01  -0.02     0.07  -0.03   0.00     0.02   0.00   0.03
 140   1     0.02  -0.01  -0.05     0.01  -0.04   0.03     0.01  -0.00   0.04
 141   1     0.01  -0.03  -0.02     0.05   0.07  -0.02     0.01   0.03  -0.01
 142   1     0.04  -0.02  -0.05    -0.07   0.02   0.02    -0.03   0.01   0.03
 143   1     0.03  -0.03  -0.03    -0.05   0.10  -0.02    -0.02   0.04  -0.01
 144   1     0.01  -0.01  -0.02     0.02   0.07  -0.03     0.03   0.02  -0.02
 145   1     0.02  -0.01  -0.04    -0.04   0.05   0.00     0.01   0.01   0.00
 146   1     0.03  -0.02  -0.03     0.00   0.03   0.00    -0.03   0.01   0.02
 147   1     0.03  -0.03  -0.03    -0.00   0.05  -0.01    -0.03   0.03  -0.00
 148   1     0.01  -0.02  -0.03    -0.00   0.03  -0.00    -0.00   0.02   0.01
 149   1     0.03  -0.03  -0.02     0.03   0.04   0.01     0.00   0.01   0.01
 150   1     0.03  -0.02  -0.04     0.02   0.05  -0.02     0.00   0.03   0.01
                     13                     14                     15
                        a                      a                      a 
 Frequencies --    65.6532                68.1888                71.4975
 Red. masses --    12.1738                12.0817                12.8287
 Frc consts  --     0.0000                 0.0000                 0.0000
 IR Inten    --     7.1370                 2.9979                 4.8695
 Raman Activ --     0.0000                 0.0000                 0.0000
 Depolar     --     0.0000                 0.0000                 0.0000
 Atom AN      X      Y      Z        X      Y      Z        X      Y      Z
   1   7     0.03  -0.00  -0.06    -0.04  -0.02   0.03    -0.06   0.02   0.02
   2   6     0.02   0.00  -0.03    -0.02  -0.02   0.01    -0.03   0.01  -0.00
   3   6     0.02   0.00  -0.01    -0.02  -0.01   0.00    -0.02   0.04  -0.01
   4   7     0.03  -0.00  -0.03    -0.03  -0.01  -0.02    -0.05   0.04  -0.05
   5   6     0.03   0.00  -0.01    -0.04  -0.02  -0.00    -0.07   0.03  -0.02
   6   7     0.03  -0.02  -0.01    -0.03  -0.02   0.01    -0.01   0.01  -0.02
   7   6     0.03  -0.05   0.05    -0.02  -0.02   0.02    -0.00  -0.00   0.03
   8   7     0.03  -0.02   0.03    -0.03  -0.02   0.01    -0.01   0.02   0.03
   9   8     0.05   0.02   0.02    -0.06  -0.02  -0.01    -0.11   0.03  -0.03
  10   8     0.04  -0.11   0.13    -0.03  -0.03   0.03     0.01  -0.03   0.08
  11   7     0.04  -0.00  -0.02    -0.01   0.05  -0.00    -0.07   0.01  -0.09
  12   6     0.02  -0.01  -0.03    -0.03   0.03  -0.02    -0.04   0.01  -0.02
  13   6     0.00  -0.02  -0.04    -0.03   0.04  -0.02    -0.03  -0.03  -0.03
  14   7     0.04  -0.01  -0.02    -0.00   0.05  -0.00     0.04  -0.02  -0.01
  15   6     0.05  -0.00  -0.01     0.03   0.06   0.03     0.03   0.01  -0.04
  16   7     0.00   0.00  -0.01    -0.05   0.06  -0.03    -0.01  -0.03   0.03
  17   6    -0.05   0.03  -0.03    -0.06   0.06  -0.03    -0.02  -0.05   0.03
  18   7    -0.05   0.02  -0.05    -0.04   0.05  -0.03    -0.08  -0.01  -0.03
  19   8     0.07   0.00  -0.01     0.11   0.09   0.09     0.11   0.03  -0.03
  20   8    -0.11   0.07  -0.04    -0.09   0.10  -0.06     0.00  -0.12   0.09
  21   7    -0.07  -0.01  -0.03    -0.08   0.07   0.01     0.04  -0.05  -0.02
  22   6    -0.02  -0.03  -0.04     0.01   0.03   0.01    -0.04  -0.01  -0.01
  23   6     0.00  -0.01  -0.03    -0.01   0.06   0.01    -0.05  -0.04  -0.02
  24   7     0.03  -0.02  -0.01     0.02   0.06   0.04    -0.04  -0.05  -0.04
  25   6    -0.03  -0.02  -0.00    -0.07   0.08   0.03     0.06  -0.08  -0.04
  26   7     0.01  -0.01  -0.03     0.11   0.07   0.01    -0.11  -0.04  -0.01
  27   6     0.02  -0.01  -0.03     0.07   0.08  -0.03    -0.05  -0.03   0.02
  28   7    -0.02  -0.02  -0.03    -0.04   0.06  -0.04    -0.05  -0.05   0.01
  29   8    -0.05  -0.02   0.01    -0.15   0.12   0.05     0.19  -0.14  -0.05
  30   8     0.05   0.01  -0.02     0.14   0.13  -0.06    -0.02  -0.01   0.07
  31   7    -0.00  -0.02   0.00    -0.01  -0.07  -0.06     0.01   0.08   0.00
  32   6     0.01   0.01  -0.02    -0.00  -0.07  -0.03    -0.02   0.04   0.01
  33   6     0.02   0.01  -0.03     0.01  -0.04  -0.04    -0.00   0.05  -0.01
  34   7     0.03   0.01  -0.03    -0.04  -0.08  -0.01     0.05   0.10  -0.05
  35   6     0.00  -0.02   0.01    -0.04  -0.09  -0.03     0.08   0.14  -0.07
  36   7     0.03  -0.00  -0.02    -0.00  -0.08   0.01    -0.03   0.05   0.05
  37   6    -0.01   0.02   0.04     0.03  -0.06   0.01    -0.01   0.06   0.04
  38   7     0.02   0.01  -0.01     0.07  -0.06  -0.07    -0.01   0.07   0.03
  39   8    -0.02  -0.06   0.04    -0.09  -0.13  -0.01     0.20   0.27  -0.18
  40   8    -0.06   0.06   0.13     0.03  -0.06   0.06    -0.01   0.07   0.06
  41   7     0.03  -0.04  -0.03     0.00   0.05  -0.01     0.02  -0.05  -0.02
  42   6     0.02  -0.04  -0.03    -0.02   0.03  -0.01    -0.01  -0.06  -0.02
  43   6     0.03  -0.03  -0.03     0.01   0.03  -0.01     0.01  -0.04  -0.02
  44   7     0.01  -0.04  -0.03     0.02   0.04  -0.02    -0.06  -0.07  -0.02
  45   6     0.01  -0.04  -0.02     0.05   0.06  -0.02    -0.02  -0.06  -0.01
  46   7    -0.00  -0.03  -0.04    -0.05   0.05  -0.02    -0.06  -0.04  -0.04
  47   6     0.02  -0.03  -0.05    -0.02   0.04  -0.03     0.01  -0.05  -0.06
  48   7     0.06  -0.04  -0.04     0.01   0.03  -0.03     0.08  -0.07  -0.05
  49   8    -0.01  -0.05  -0.03     0.13   0.10  -0.04    -0.05  -0.08  -0.01
  50   8     0.02  -0.03  -0.07    -0.01   0.05  -0.05     0.03  -0.07  -0.11
  51   6    -0.00   0.01   0.00     0.06   0.05   0.04    -0.08  -0.03  -0.04
  52   6     0.03  -0.00   0.01    -0.02   0.01  -0.02    -0.01   0.01   0.05
  53   6     0.03   0.02  -0.02    -0.09   0.06  -0.05     0.01  -0.03   0.02
  54   6     0.03  -0.01  -0.02    -0.03   0.02  -0.01    -0.05   0.05  -0.08
  55   7     0.03  -0.02  -0.07    -0.01  -0.08  -0.01    -0.07   0.01   0.04
  56   6     0.03  -0.03  -0.03    -0.02  -0.06  -0.01    -0.04  -0.01  -0.00
  57   6     0.01  -0.04  -0.02    -0.00  -0.06  -0.02    -0.03   0.01  -0.01
  58   7    -0.05  -0.02  -0.03    -0.00  -0.06  -0.02     0.01  -0.01  -0.01
  59   6    -0.05   0.00  -0.04     0.02  -0.08  -0.02    -0.01  -0.02   0.01
  60   7     0.04  -0.02  -0.04    -0.05  -0.07   0.02    -0.00   0.01  -0.04
  61   6     0.03  -0.03  -0.03    -0.00  -0.06   0.01    -0.01   0.02  -0.04
  62   7     0.03  -0.03  -0.03     0.03  -0.06  -0.01    -0.07  -0.00  -0.01
  63   8    -0.12   0.04  -0.04     0.06  -0.12  -0.04     0.03  -0.04   0.01
  64   8     0.04  -0.03  -0.04    -0.00  -0.07   0.02     0.04   0.05  -0.07
  65   6     0.03   0.00  -0.07    -0.04  -0.05   0.00    -0.07  -0.01   0.04
  66   6     0.03  -0.02  -0.02    -0.02  -0.04   0.02    -0.00   0.00  -0.04
  67   6     0.02  -0.03  -0.03     0.10  -0.02  -0.05    -0.10  -0.01   0.01
  68   6    -0.08  -0.04  -0.02    -0.04  -0.01   0.04     0.05  -0.01  -0.03
  69   6     0.04  -0.03  -0.03     0.00   0.04  -0.01     0.05  -0.05  -0.02
  70   6    -0.05  -0.02  -0.04    -0.05   0.04  -0.03    -0.09  -0.03  -0.03
  71   6     0.02  -0.02  -0.01    -0.03  -0.01  -0.04     0.03  -0.01   0.00
  72   6     0.03  -0.00  -0.05     0.06  -0.01  -0.02     0.03   0.02  -0.06
  73   7     0.04   0.05   0.04    -0.00  -0.01   0.07    -0.02  -0.01   0.01
  74   6     0.02   0.03  -0.00    -0.00  -0.01  -0.01    -0.01  -0.01   0.02
  75   6     0.02   0.03   0.00    -0.01   0.04  -0.01    -0.02  -0.02  -0.00
  76   7     0.04   0.06   0.04    -0.08   0.02  -0.06     0.01   0.00   0.06
  77   6     0.06   0.07   0.07    -0.06   0.01   0.03     0.01   0.01   0.05
  78   7    -0.00   0.08  -0.05    -0.00   0.03  -0.09    -0.01  -0.03   0.06
  79   6    -0.03   0.11  -0.09     0.04   0.03  -0.04    -0.07   0.02  -0.02
  80   7     0.00   0.07  -0.03     0.05   0.01   0.04    -0.07   0.02  -0.06
  81   8     0.09   0.10   0.14    -0.09   0.01   0.08     0.03   0.02   0.09
  82   8    -0.09   0.21  -0.20     0.07   0.04  -0.08    -0.13   0.06  -0.07
  83   6     0.01   0.01   0.01    -0.03  -0.07   0.05    -0.00   0.01   0.03
  84   6     0.03   0.03  -0.01     0.02  -0.03  -0.08    -0.04   0.03   0.03
  85   1     0.00   0.01  -0.01    -0.00  -0.01   0.01    -0.01  -0.00  -0.00
  86   1     0.00   0.01   0.00    -0.00   0.00  -0.00    -0.00   0.02  -0.00
  87   1     0.01  -0.00  -0.01    -0.01   0.00  -0.01    -0.01   0.02  -0.00
  88   1    -0.00  -0.02  -0.02    -0.01   0.01  -0.01    -0.01  -0.02  -0.01
  89   1    -0.01  -0.02  -0.02     0.00  -0.02   0.00    -0.01   0.01   0.00
  90   1     0.00   0.00  -0.01    -0.01   0.03   0.01    -0.01  -0.02  -0.00
  91   1     0.00   0.01  -0.00    -0.01  -0.03  -0.01    -0.01   0.01  -0.00
  92   1     0.01   0.00  -0.01     0.00   0.00  -0.01    -0.00   0.01  -0.01
  93   1     0.00  -0.02  -0.01    -0.01   0.00   0.00    -0.01  -0.03  -0.00
  94   1     0.01  -0.00  -0.00     0.00   0.01   0.00     0.01   0.00   0.00
  95   1    -0.00   0.00   0.00     0.02   0.03   0.01    -0.02  -0.02  -0.01
  96   1    -0.01   0.00   0.01     0.03   0.01   0.01    -0.03  -0.01  -0.01
  97   1     0.02   0.01   0.00     0.00   0.00  -0.01    -0.00   0.02   0.02
  98   1     0.01  -0.00   0.01    -0.00   0.00  -0.01    -0.00  -0.00   0.03
  99   1     0.02   0.01  -0.01    -0.04   0.01  -0.02     0.01  -0.01   0.01
 100   1     0.02   0.00  -0.01    -0.03   0.03  -0.01     0.01  -0.02  -0.00
 101   1     0.01  -0.00  -0.00    -0.02   0.00  -0.00    -0.02   0.01  -0.04
 102   1     0.01  -0.00  -0.01    -0.01   0.01  -0.00    -0.01   0.03  -0.02
 103   1     0.01  -0.01  -0.01    -0.01  -0.01  -0.00    -0.01  -0.01  -0.00
 104   1     0.00  -0.02  -0.00    -0.00  -0.02  -0.01    -0.01   0.01  -0.00
 105   1     0.01   0.01  -0.02    -0.02  -0.02  -0.00    -0.02  -0.01   0.01
 106   1     0.01  -0.00  -0.03    -0.02  -0.01  -0.00    -0.03  -0.00   0.02
 107   1     0.01  -0.01  -0.01    -0.00  -0.01   0.01     0.00   0.00  -0.01
 108   1     0.01  -0.00  -0.01    -0.01  -0.01   0.01    -0.00  -0.01  -0.01
 109   1     0.01  -0.01  -0.01     0.04   0.00  -0.02    -0.04  -0.01   0.00
 110   1     0.01  -0.01  -0.01     0.03  -0.02  -0.03    -0.03   0.01   0.01
 111   1    -0.02  -0.02  -0.01    -0.01  -0.01   0.02     0.02   0.01  -0.01
 112   1    -0.04  -0.01  -0.00    -0.01  -0.00   0.02     0.03  -0.01  -0.01
 113   1     0.01  -0.01  -0.01     0.01   0.01  -0.00     0.02  -0.01  -0.01
 114   1     0.01  -0.01  -0.01     0.00   0.01  -0.00     0.01  -0.02  -0.01
 115   1    -0.02  -0.02  -0.01    -0.02   0.01  -0.01    -0.03  -0.02  -0.01
 116   1    -0.03  -0.00  -0.01    -0.02   0.01  -0.01    -0.03  -0.00  -0.01
 117   1     0.01  -0.01   0.00    -0.01  -0.00  -0.02     0.02  -0.00   0.01
 118   1     0.01  -0.00  -0.00    -0.01   0.00  -0.02     0.01  -0.01   0.01
 119   1     0.01   0.00  -0.02     0.02   0.00   0.00     0.00   0.02  -0.02
 120   1     0.01  -0.00  -0.02     0.03  -0.01  -0.00     0.01   0.01  -0.03
 121   1     0.00  -0.00  -0.00     0.00  -0.02  -0.01     0.00   0.00   0.01
 122   1     0.01   0.00  -0.00    -0.00   0.03  -0.00    -0.00  -0.02  -0.01
 123   1    -0.00   0.00   0.00    -0.01  -0.04   0.01    -0.00   0.00   0.01
 124   1    -0.00   0.00   0.01    -0.02  -0.02   0.03     0.01   0.00   0.01
 125   1     0.01   0.01  -0.00     0.02  -0.01  -0.03    -0.02   0.01   0.01
 126   1     0.02   0.01  -0.00     0.01  -0.02  -0.02    -0.02   0.01   0.01
 127   6    -0.18   0.16   0.07     0.13  -0.09   0.12     0.21  -0.05   0.13
 128   6    -0.08   0.09   0.21    -0.04  -0.01   0.03     0.11  -0.00   0.07
 129   6    -0.04  -0.08   0.21    -0.01   0.10   0.02     0.08   0.08   0.07
 130   6    -0.06  -0.05   0.19     0.05  -0.04   0.08     0.09   0.04   0.07
 131   6    -0.13  -0.01   0.09     0.23  -0.11   0.15     0.16   0.01   0.11
 132   6    -0.17   0.14   0.08     0.19  -0.19   0.16     0.20  -0.07   0.11
 133   6    -0.08  -0.12   0.20     0.08   0.03   0.07     0.08   0.08   0.07
 134   7    -0.02  -0.12   0.22    -0.08   0.03   0.03     0.01   0.08   0.05
 135   1    -0.06   0.03  -0.01     0.06   0.01   0.05     0.07   0.00   0.06
 136   1    -0.07   0.09   0.02     0.04  -0.05   0.03     0.07  -0.04   0.04
 137   1    -0.02   0.02   0.06    -0.03   0.03  -0.00     0.03   0.01   0.02
 138   1    -0.01   0.05   0.09    -0.04  -0.04   0.00     0.02  -0.02   0.01
 139   1     0.01  -0.04   0.09    -0.04   0.05  -0.01     0.00   0.03   0.01
 140   1    -0.03  -0.05   0.04     0.03   0.07   0.01     0.03   0.04   0.03
 141   1    -0.01   0.00   0.06    -0.01  -0.05   0.02     0.02  -0.00   0.01
 142   1    -0.04  -0.02   0.00     0.10   0.00   0.04     0.05   0.01   0.05
 143   1    -0.04  -0.00   0.02     0.08  -0.06   0.06     0.05  -0.00   0.03
 144   1    -0.05   0.06   0.05     0.03  -0.08   0.04     0.05  -0.03   0.02
 145   1    -0.06   0.05   0.00     0.08  -0.07   0.06     0.07  -0.03   0.04
 146   1    -0.03  -0.05   0.06     0.04   0.04   0.01     0.03   0.04   0.02
 147   1    -0.03  -0.03   0.05     0.04  -0.01   0.03     0.03   0.01   0.02
 148   1    -0.01  -0.03   0.06    -0.04   0.02   0.01    -0.02   0.03   0.02
 149   1     0.00  -0.04   0.06    -0.03   0.02   0.02     0.01   0.03   0.03
 150   1     0.00  -0.02   0.05    -0.03  -0.02  -0.01     0.00   0.01  -0.01
                     16                     17                     18
                        a                      a                      a 
 Frequencies --    73.4161                74.6947                77.5009
 Red. masses --    13.2422                14.0564                13.6684
 Frc consts  --     0.0000                 0.0000                 0.0000
 IR Inten    --     1.1712                 5.1486                 2.9189
 Raman Activ --     0.0000                 0.0000                 0.0000
 Depolar     --     0.0000                 0.0000                 0.0000
 Atom AN      X      Y      Z        X      Y      Z        X      Y      Z
   1   7     0.04   0.01  -0.08    -0.02   0.07   0.08    -0.02  -0.09  -0.03
   2   6    -0.01   0.03  -0.00     0.00   0.04   0.01     0.01  -0.07  -0.01
   3   6    -0.01  -0.01  -0.00     0.01   0.07  -0.01     0.01  -0.05  -0.01
   4   7     0.03  -0.01   0.06    -0.02   0.08  -0.03    -0.01  -0.08  -0.11
   5   6     0.06  -0.01  -0.03    -0.04   0.07   0.02    -0.03  -0.10  -0.10
   6   7    -0.05   0.00   0.07     0.01   0.08  -0.05     0.01  -0.10   0.01
   7   6    -0.07   0.02  -0.00     0.02   0.08  -0.03     0.02  -0.11   0.04
   8   7    -0.05   0.02  -0.06     0.01   0.07  -0.00     0.01  -0.11   0.06
   9   8     0.10  -0.03  -0.08    -0.07   0.09   0.03    -0.05  -0.13  -0.20
  10   8    -0.11   0.03  -0.01     0.04   0.10  -0.06     0.03  -0.14   0.07
  11   7     0.05   0.01   0.09    -0.03   0.05  -0.05     0.09   0.08   0.07
  12   6    -0.01  -0.00  -0.00    -0.00   0.05  -0.00     0.01   0.05   0.01
  13   6    -0.00   0.04   0.01     0.01   0.03   0.00     0.02   0.06   0.01
  14   7    -0.10   0.03  -0.02     0.07   0.04   0.03     0.04   0.08   0.04
  15   6    -0.02   0.02   0.07     0.02   0.04  -0.03     0.09   0.09   0.08
  16   7    -0.06   0.05  -0.08     0.02   0.04   0.01    -0.05   0.13  -0.05
  17   6     0.03   0.03  -0.05    -0.01   0.05   0.00    -0.05   0.15  -0.06
  18   7     0.08  -0.00   0.01    -0.02   0.06  -0.02     0.02   0.10  -0.01
  19   8    -0.02   0.03   0.13     0.03   0.05  -0.07     0.16   0.12   0.14
  20   8     0.05   0.04  -0.10    -0.02   0.07   0.01    -0.13   0.26  -0.12
  21   7    -0.03  -0.08   0.00    -0.03   0.02   0.02     0.11   0.02  -0.01
  22   6    -0.03  -0.06  -0.01     0.01   0.00   0.02     0.03   0.04   0.00
  23   6    -0.03  -0.04  -0.01     0.01   0.02   0.02     0.04  -0.00   0.00
  24   7     0.08  -0.10   0.03     0.02   0.02   0.03    -0.06   0.05  -0.05
  25   6     0.12  -0.14   0.05    -0.01   0.02   0.03    -0.02   0.06  -0.05
  26   7    -0.02  -0.07  -0.03     0.03   0.01   0.02    -0.06   0.01   0.01
  27   6    -0.05  -0.07  -0.05     0.01   0.01   0.00     0.01   0.01   0.06
  28   7    -0.11  -0.08  -0.05    -0.00   0.02   0.01     0.12   0.04   0.07
  29   8     0.31  -0.26   0.11    -0.04   0.03   0.05    -0.09   0.11  -0.11
  30   8    -0.05  -0.08  -0.08    -0.00   0.01  -0.02    -0.02  -0.00   0.10
  31   7    -0.02  -0.07   0.09     0.00  -0.02   0.04     0.00  -0.04   0.05
  32   6    -0.01  -0.01   0.01     0.02   0.00   0.02     0.01  -0.00  -0.00
  33   6     0.01  -0.04  -0.02     0.03   0.01   0.01     0.01  -0.03  -0.01
  34   7     0.08  -0.02  -0.04     0.02  -0.00   0.01     0.06  -0.01  -0.03
  35   6     0.04  -0.06   0.05    -0.01  -0.04   0.05     0.03  -0.04   0.03
  36   7     0.01  -0.02  -0.04     0.04  -0.01   0.02     0.02  -0.00  -0.06
  37   6    -0.02  -0.02  -0.01     0.05  -0.01   0.01    -0.03  -0.00  -0.02
  38   7    -0.04  -0.03   0.02     0.05  -0.00   0.01    -0.04  -0.01   0.02
  39   8     0.05  -0.11   0.11    -0.06  -0.10   0.12     0.03  -0.08   0.08
  40   8    -0.05  -0.02  -0.02     0.07  -0.01   0.00    -0.05   0.00  -0.03
  41   7    -0.11   0.01  -0.03    -0.01  -0.09   0.01    -0.07  -0.03  -0.01
  42   6     0.01   0.03   0.01     0.05  -0.05  -0.00     0.02   0.00  -0.00
  43   6     0.02  -0.02  -0.00     0.05  -0.04   0.00     0.01  -0.02  -0.01
  44   7     0.11   0.02  -0.05    -0.05  -0.09   0.01     0.03  -0.02  -0.02
  45   6    -0.03   0.01  -0.07    -0.17  -0.15   0.01    -0.07  -0.04  -0.03
  46   7     0.10  -0.03   0.02     0.07  -0.08  -0.03     0.08  -0.04   0.00
  47   6     0.01  -0.00   0.05     0.06  -0.06  -0.03     0.01  -0.02   0.03
  48   7    -0.05   0.01   0.03     0.12  -0.08  -0.03    -0.03  -0.02   0.02
  49   8    -0.07   0.00  -0.13    -0.46  -0.28   0.02    -0.18  -0.08  -0.06
  50   8    -0.01   0.01   0.10     0.03  -0.03  -0.05    -0.02  -0.00   0.07
  51   6    -0.00  -0.00   0.06     0.02   0.03   0.04    -0.06  -0.01  -0.08
  52   6    -0.06   0.01  -0.10     0.01   0.06   0.01     0.04   0.00  -0.04
  53   6    -0.03   0.01  -0.06    -0.00   0.04   0.00     0.11  -0.02   0.08
  54   6     0.03  -0.04   0.09    -0.02   0.08  -0.05    -0.03   0.01   0.00
  55   7     0.02   0.02  -0.06     0.03  -0.08  -0.01    -0.08   0.04   0.09
  56   6    -0.01   0.03   0.00    -0.02  -0.04   0.01    -0.01  -0.01   0.01
  57   6    -0.02  -0.01   0.00    -0.01  -0.04   0.01     0.00   0.04   0.00
  58   7    -0.10   0.02   0.02     0.03  -0.08  -0.02     0.07   0.02   0.01
  59   6    -0.04   0.02  -0.04     0.10  -0.12  -0.05    -0.03   0.04   0.09
  60   7    -0.04   0.02   0.04    -0.06  -0.07   0.03     0.07   0.03  -0.06
  61   6     0.02   0.01   0.04    -0.04  -0.06   0.02    -0.01   0.02  -0.04
  62   7     0.06   0.01  -0.00    -0.04  -0.07   0.02    -0.07   0.02   0.00
  63   8    -0.06   0.02  -0.09     0.24  -0.22  -0.14    -0.07   0.09   0.18
  64   8     0.04   0.01   0.07    -0.05  -0.07   0.03    -0.02   0.03  -0.08
  65   6     0.05   0.04  -0.08    -0.04  -0.00   0.00    -0.02  -0.06   0.08
  66   6    -0.06   0.03   0.07     0.02  -0.00   0.01     0.01  -0.04  -0.06
  67   6     0.04  -0.04   0.01     0.00  -0.02  -0.01    -0.10   0.04   0.01
  68   6    -0.08  -0.03  -0.03     0.01  -0.02   0.03     0.10   0.03  -0.01
  69   6    -0.13   0.06  -0.03     0.04  -0.01  -0.02    -0.01   0.04  -0.03
  70   6     0.12   0.00   0.04    -0.01  -0.01   0.02     0.04   0.02   0.04
  71   6     0.10  -0.03  -0.07    -0.02  -0.03   0.05     0.06  -0.02  -0.03
  72   6    -0.06  -0.03   0.04     0.08  -0.01  -0.04    -0.05  -0.03   0.02
  73   7     0.01   0.07   0.06     0.04   0.05   0.07     0.02  -0.01  -0.06
  74   6     0.01   0.06   0.03     0.03   0.04   0.04     0.01  -0.00  -0.00
  75   6    -0.00   0.05   0.01     0.02   0.04   0.04     0.02  -0.04  -0.00
  76   7    -0.01   0.07   0.04     0.01   0.04   0.02     0.08  -0.02   0.04
  77   6    -0.01   0.06   0.03    -0.00   0.02   0.01     0.06  -0.01  -0.03
[...]
  54   6     0.00   0.00   0.00     0.00  -0.00   0.00     0.00   0.00   0.00
  55   7     0.00  -0.00  -0.00     0.00   0.00   0.00     0.00  -0.00  -0.00
  56   6    -0.00   0.00   0.00    -0.00   0.00   0.00    -0.00  -0.00   0.00
  57   6    -0.00   0.00  -0.00    -0.00   0.00   0.00    -0.00  -0.00   0.00
  58   7    -0.00   0.00   0.00     0.00  -0.00   0.00     0.00  -0.00  -0.00
  59   6    -0.00   0.00  -0.00    -0.00  -0.00   0.00    -0.00   0.00  -0.00
  60   7     0.00   0.00   0.00     0.00  -0.00   0.00     0.00  -0.00  -0.00
  61   6    -0.00   0.00  -0.00    -0.00   0.00   0.00     0.00  -0.00   0.00
  62   7    -0.00  -0.00  -0.00     0.00   0.00   0.00     0.00   0.00  -0.00
  63   8     0.00  -0.00   0.00     0.00   0.00  -0.00     0.00   0.00   0.00
  64   8    -0.00  -0.00  -0.00    -0.00  -0.00   0.00     0.00   0.00   0.00
  65   6    -0.00  -0.00   0.00    -0.00  -0.00   0.00    -0.00  -0.00   0.00
  66   6    -0.00   0.00   0.00    -0.00   0.00  -0.00    -0.00  -0.00   0.00
  67   6     0.00  -0.00  -0.00    -0.00   0.00  -0.00    -0.00   0.00   0.00
  68   6     0.00   0.00   0.00    -0.00  -0.00  -0.00    -0.00   0.00   0.00
  69   6     0.00  -0.00   0.00     0.00  -0.00  -0.00    -0.00  -0.00   0.00
  70   6     0.00  -0.00   0.00     0.00   0.00  -0.00    -0.00   0.00   0.00
  71   6    -0.00  -0.00  -0.00     0.00  -0.00  -0.00    -0.00  -0.00   0.00
  72   6    -0.00  -0.00   0.00     0.00  -0.00  -0.00    -0.00   0.00   0.00
  73   7     0.00  -0.00  -0.00     0.00   0.00   0.00    -0.00  -0.00  -0.00
  74   6     0.00   0.00   0.00    -0.00   0.00  -0.00     0.00   0.00  -0.00
  75   6     0.00   0.00   0.00    -0.00  -0.00  -0.00    -0.00  -0.00   0.00
  76   7     0.00  -0.00  -0.00     0.00  -0.00  -0.00     0.00  -0.00  -0.00
  77   6    -0.00   0.00   0.00    -0.00   0.00   0.00    -0.00   0.00   0.00
  78   7    -0.00   0.00  -0.00     0.00  -0.00   0.00    -0.00   0.00  -0.00
  79   6    -0.00  -0.00   0.00    -0.00   0.00  -0.00    -0.00  -0.00   0.00
  80   7    -0.00   0.00  -0.00     0.00   0.00   0.00     0.00   0.00  -0.00
  81   8     0.00  -0.00  -0.00     0.00   0.00   0.00    -0.00  -0.00  -0.00
  82   8     0.00   0.00  -0.00     0.00   0.00   0.00     0.00   0.00  -0.00
  83   6     0.00   0.00  -0.00     0.00   0.00  -0.00    -0.00   0.00  -0.00
  84   6    -0.00  -0.00   0.00     0.00   0.00  -0.00    -0.00  -0.00  -0.00
  85   1     0.00  -0.00  -0.00     0.00   0.00  -0.00     0.00   0.00  -0.00
  86   1    -0.00  -0.00  -0.00    -0.00   0.00  -0.00    -0.00   0.00  -0.00
  87   1    -0.00   0.00  -0.00    -0.00   0.00  -0.00    -0.00   0.00  -0.00
  88   1    -0.00   0.00  -0.00    -0.00   0.00  -0.00    -0.00   0.00  -0.00
  89   1    -0.00  -0.00   0.00     0.00  -0.00  -0.00     0.00  -0.00  -0.00
  90   1    -0.00  -0.00  -0.00     0.00   0.00   0.00     0.00  -0.00   0.00
  91   1    -0.00  -0.00   0.00    -0.00  -0.00   0.00    -0.00  -0.00   0.00
  92   1    -0.00  -0.00   0.00    -0.00  -0.00   0.00    -0.00  -0.00   0.00
  93   1    -0.00   0.00  -0.00    -0.00   0.00  -0.00     0.00   0.00   0.00
  94   1    -0.00  -0.00   0.00    -0.00   0.00   0.00     0.00   0.00  -0.00
  95   1    -0.00  -0.00  -0.00     0.00   0.00   0.00    -0.00  -0.00  -0.00
  96   1     0.00  -0.00   0.00     0.00   0.00   0.00     0.00  -0.00   0.00
  97   1    -0.00   0.00  -0.00     0.00   0.00   0.00    -0.00   0.00  -0.00
  98   1    -0.00  -0.00  -0.00     0.00   0.00   0.00     0.00  -0.00  -0.00
  99   1    -0.00   0.00   0.00    -0.00   0.00  -0.00     0.00  -0.00   0.00
 100   1    -0.00   0.00  -0.00    -0.00  -0.00  -0.00     0.00   0.00   0.00
 101   1     0.00  -0.00   0.00    -0.00   0.00  -0.00     0.00  -0.00  -0.00
 102   1    -0.00   0.00  -0.00    -0.00   0.00  -0.00    -0.00   0.00  -0.00
 103   1     0.00  -0.00  -0.00     0.00  -0.00  -0.00     0.00   0.00  -0.00
 104   1     0.00  -0.00  -0.00     0.00  -0.00  -0.00     0.00   0.00   0.00
 105   1     0.00   0.00  -0.00     0.00   0.00  -0.00     0.00   0.00  -0.00
 106   1     0.00   0.00  -0.00     0.00   0.00  -0.00     0.00   0.00   0.00
 107   1    -0.00  -0.00  -0.00     0.00  -0.00  -0.00    -0.00   0.00   0.00
 108   1     0.00  -0.00  -0.00     0.00   0.00  -0.00     0.00  -0.00  -0.00
 109   1    -0.00   0.00   0.00     0.00  -0.00  -0.00     0.00  -0.00  -0.00
 110   1    -0.00   0.00   0.00     0.00  -0.00   0.00     0.00  -0.00  -0.00
 111   1    -0.00  -0.00   0.00     0.00   0.00  -0.00     0.00  -0.00  -0.00
 112   1    -0.00  -0.00  -0.00     0.00   0.00   0.00     0.00   0.00  -0.00
 113   1    -0.00   0.00   0.00    -0.00   0.00   0.00    -0.00   0.00   0.00
 114   1    -0.00   0.00  -0.00    -0.00   0.00  -0.00     0.00  -0.00   0.00
 115   1    -0.00   0.00  -0.00     0.00   0.00   0.00     0.00   0.00   0.00
 116   1     0.00   0.00   0.00    -0.00  -0.00  -0.00    -0.00   0.00   0.00
 117   1    -0.00   0.00   0.00    -0.00   0.00   0.00    -0.00   0.00   0.00
 118   1     0.00  -0.00  -0.00    -0.00   0.00   0.00     0.00  -0.00  -0.00
 119   1     0.00   0.00  -0.00    -0.00  -0.00   0.00     0.00   0.00  -0.00
 120   1     0.00   0.00   0.00     0.00   0.00   0.00    -0.00   0.00   0.00
 121   1     0.00  -0.00   0.00     0.00  -0.00   0.00     0.00  -0.00   0.00
 122   1     0.00  -0.00   0.00     0.00   0.00   0.00     0.00  -0.00   0.00
 123   1    -0.00  -0.00   0.00    -0.00  -0.00   0.01    -0.00   0.00   0.00
 124   1    -0.00  -0.00   0.00    -0.00  -0.00  -0.00     0.00  -0.00   0.00
 125   1    -0.00   0.00   0.00     0.00   0.00  -0.00    -0.00  -0.00   0.00
 126   1     0.00  -0.00  -0.00    -0.00  -0.00   0.00    -0.00  -0.00   0.00
 127   6    -0.02  -0.03  -0.23     0.00  -0.00   0.00     0.00  -0.00  -0.04
 128   6    -0.04  -0.01   0.01     0.00  -0.00   0.00     0.14   0.11  -0.13
 129   6    -0.01  -0.00   0.00     0.01   0.00   0.00     0.01   0.02   0.00
 130   6    -0.00   0.00   0.00     0.02  -0.01   0.01    -0.00  -0.00  -0.00
 131   6    -0.00  -0.00   0.00     0.00  -0.01   0.00     0.00  -0.00   0.00
 132   6    -0.02  -0.00  -0.02     0.00  -0.00   0.00    -0.00  -0.00  -0.00
 133   6    -0.00  -0.00   0.00     0.15  -0.12   0.11     0.00  -0.00   0.00
 134   7    -0.00  -0.00   0.00    -0.01  -0.00  -0.01     0.00   0.00   0.00
 135   1    -0.11   0.09  -0.06    -0.00   0.00   0.00    -0.02   0.02  -0.01
 136   1     0.18   0.02   0.92    -0.00  -0.00  -0.02     0.03   0.00   0.16
 137   1     0.15   0.04  -0.08     0.00   0.00  -0.00    -0.77  -0.21   0.41
 138   1     0.00  -0.01   0.01    -0.01   0.01  -0.00     0.25  -0.20   0.07
 139   1     0.00   0.01   0.00    -0.01  -0.02  -0.00    -0.03  -0.08  -0.02
 140   1     0.01  -0.01   0.00    -0.02   0.02  -0.01    -0.01   0.02  -0.00
 141   1     0.00  -0.00   0.00    -0.04   0.04  -0.02     0.00  -0.00   0.00
 142   1     0.00  -0.00   0.00    -0.02   0.02  -0.01    -0.00   0.00  -0.00
 143   1     0.02   0.00  -0.01     0.01   0.00  -0.01     0.00   0.00  -0.00
 144   1     0.06  -0.05   0.02    -0.01   0.01  -0.00     0.01  -0.01   0.00
 145   1     0.01   0.07   0.02     0.00   0.00   0.00     0.00   0.02   0.00
 146   1    -0.01   0.00  -0.00    -0.81   0.32  -0.28    -0.01   0.00  -0.00
 147   1     0.02   0.01  -0.01     0.26   0.14  -0.13    -0.00  -0.00   0.00
 148   1    -0.00  -0.00  -0.00    -0.00  -0.00   0.01    -0.00  -0.00  -0.00
 149   1    -0.00   0.00   0.00    -0.01  -0.01   0.00    -0.00  -0.00   0.00
 150   1     0.00  -0.00   0.00     0.05  -0.02   0.01     0.00  -0.00   0.00
                    442                    443                    444
                        a                      a                      a 
 Frequencies --  3126.4386              3160.0110              3303.4219
 Red. masses --     2.0541                 1.6215                 1.7574
 Frc consts  --     0.0000                 0.0000                 0.0000
 IR Inten    --   625.1394               292.2357               121.3507
 Raman Activ --     0.0000                 0.0000                 0.0000
 Depolar     --     0.0000                 0.0000                 0.0000
 Atom AN      X      Y      Z        X      Y      Z        X      Y      Z
   1   7    -0.00  -0.00  -0.00     0.00  -0.00  -0.00     0.00   0.00  -0.00
   2   6    -0.00  -0.00   0.00    -0.00   0.00   0.00     0.00  -0.00  -0.00
   3   6    -0.00  -0.00  -0.00     0.00   0.00   0.00    -0.00  -0.00  -0.00
   4   7    -0.00   0.00  -0.00     0.00  -0.00  -0.00     0.00   0.00  -0.00
   5   6     0.00  -0.00   0.00    -0.00   0.00   0.00     0.00  -0.00   0.00
   6   7    -0.00   0.00  -0.00     0.00   0.00  -0.00     0.00   0.00  -0.00
   7   6     0.00  -0.00  -0.00    -0.00  -0.00   0.00     0.00  -0.00  -0.00
   8   7    -0.00   0.00  -0.00     0.00   0.00  -0.00    -0.00   0.00   0.00
   9   8     0.00   0.00  -0.00    -0.00  -0.00   0.00     0.00   0.00  -0.00
  10   8     0.00   0.00   0.00    -0.00  -0.00  -0.00    -0.00   0.00   0.00
  11   7    -0.00   0.00  -0.00    -0.00  -0.00  -0.00     0.00   0.00  -0.00
  12   6     0.00  -0.00   0.00     0.00   0.00   0.00    -0.00  -0.00  -0.00
  13   6     0.00  -0.00   0.00     0.00  -0.00   0.00    -0.00  -0.00  -0.00
  14   7    -0.00  -0.00  -0.00    -0.00  -0.00  -0.00     0.00   0.00   0.00
  15   6    -0.00   0.00   0.00     0.00   0.00   0.00     0.00  -0.00  -0.00
  16   7     0.00   0.00  -0.00    -0.00   0.00   0.00     0.00   0.00   0.00
  17   6    -0.00  -0.00   0.00     0.00   0.00  -0.00    -0.00  -0.00  -0.00
  18   7     0.00   0.00  -0.00    -0.00   0.00   0.00     0.00  -0.00   0.00
  19   8     0.00   0.00  -0.00     0.00  -0.00   0.00    -0.00   0.00  -0.00
  20   8     0.00   0.00  -0.00    -0.00  -0.00   0.00     0.00   0.00   0.00
  21   7     0.00  -0.00  -0.00     0.00  -0.00   0.00     0.00  -0.00   0.00
  22   6    -0.00   0.00   0.00    -0.00   0.00   0.00     0.00  -0.00  -0.00
  23   6    -0.00   0.00  -0.00    -0.00  -0.00  -0.00     0.00  -0.00   0.00
  24   7    -0.00  -0.00  -0.00     0.00  -0.00  -0.00    -0.00   0.00   0.00
  25   6    -0.00   0.00   0.00    -0.00   0.00   0.00    -0.00  -0.00  -0.00
  26   7     0.00  -0.00  -0.00     0.00  -0.00  -0.00     0.00  -0.00  -0.00
  27   6    -0.00   0.00  -0.00    -0.00   0.00  -0.00    -0.00   0.00  -0.00
  28   7    -0.00   0.00   0.00     0.00   0.00   0.00    -0.00  -0.00   0.00
  29   8    -0.00  -0.00  -0.00    -0.00  -0.00  -0.00     0.00   0.00   0.00
  30   8     0.00  -0.00   0.00     0.00  -0.00   0.00     0.00  -0.00   0.00
  31   7     0.00   0.00  -0.00    -0.00  -0.00   0.00     0.00   0.00  -0.00
  32   6    -0.00  -0.00   0.00     0.00   0.00  -0.00    -0.00  -0.00   0.00
  33   6     0.00  -0.00   0.00     0.00   0.00  -0.00    -0.00  -0.00   0.00
  34   7    -0.00  -0.00   0.00     0.00  -0.00   0.00     0.00   0.00  -0.00
  35   6     0.00   0.00  -0.00     0.00   0.00   0.00    -0.00  -0.00  -0.00
  36   7     0.00   0.00  -0.00    -0.00   0.00   0.00     0.00   0.00  -0.00
  37   6    -0.00  -0.00  -0.00     0.00  -0.00  -0.00    -0.00  -0.00   0.00
  38   7     0.00   0.00   0.00    -0.00   0.00   0.00     0.00   0.00  -0.00
  39   8     0.00   0.00   0.00     0.00  -0.00  -0.00    -0.00   0.00   0.00
  40   8     0.00   0.00  -0.00     0.00   0.00   0.00     0.00   0.00  -0.00
  41   7    -0.00  -0.00  -0.00    -0.00   0.00   0.00     0.00   0.00  -0.00
  42   6     0.00   0.00   0.00    -0.00  -0.00   0.00    -0.00  -0.00  -0.00
  43   6     0.00   0.00  -0.00    -0.00  -0.00  -0.00    -0.00  -0.00   0.00
  44   7    -0.00  -0.00  -0.00    -0.00   0.00  -0.00     0.00   0.00   0.00
  45   6    -0.00   0.00   0.00     0.00  -0.00   0.00     0.00  -0.00   0.00
  46   7    -0.00  -0.00  -0.00     0.00   0.00   0.00     0.00   0.00   0.00
  47   6     0.00   0.01   0.00    -0.00  -0.01   0.00    -0.00  -0.00  -0.00
  48   7    -0.00  -0.00   0.00     0.00   0.00  -0.00     0.00   0.00  -0.00
  49   8     0.00  -0.00  -0.00    -0.00   0.00   0.00    -0.00   0.00   0.00
  50   8    -0.00  -0.00  -0.00     0.00   0.01   0.00     0.00   0.00   0.00
  51   6     0.00  -0.00   0.00    -0.00   0.00  -0.00     0.00  -0.00   0.00
  52   6     0.00   0.00  -0.00    -0.00   0.00   0.00    -0.00  -0.00  -0.00
  53   6     0.00   0.00  -0.00    -0.00   0.00  -0.00     0.00  -0.00   0.00
  54   6     0.00  -0.00  -0.00    -0.00  -0.00   0.00    -0.00   0.00  -0.00
  55   7     0.00  -0.00  -0.00     0.00  -0.00   0.00     0.00  -0.00  -0.00
  56   6    -0.00  -0.00   0.00    -0.00   0.00   0.00    -0.00  -0.00  -0.00
  57   6    -0.00   0.00   0.00    -0.00   0.00   0.00     0.00  -0.00  -0.00
  58   7    -0.00  -0.00  -0.00     0.00  -0.00  -0.00     0.00  -0.00  -0.00
  59   6     0.00   0.00   0.00    -0.00   0.00   0.00    -0.00  -0.00   0.00
  60   7     0.00   0.00  -0.00     0.00   0.00  -0.00     0.00  -0.00  -0.00
  61   6     0.00  -0.00   0.00    -0.00  -0.00   0.00    -0.00   0.00   0.00
  62   7    -0.00   0.00  -0.00     0.00   0.00  -0.00     0.00   0.00  -0.00
  63   8    -0.00  -0.00   0.00    -0.00  -0.00   0.00     0.00   0.00  -0.00
  64   8    -0.00   0.00   0.00     0.00  -0.00  -0.00     0.00   0.00  -0.00
  65   6     0.00  -0.00   0.00    -0.00  -0.00  -0.00     0.00   0.00  -0.00
  66   6     0.00   0.00   0.00    -0.00   0.00   0.00    -0.00   0.00   0.00
  67   6    -0.00  -0.00   0.00    -0.00   0.00  -0.00    -0.00  -0.00   0.00
  68   6    -0.00   0.00   0.00    -0.00  -0.00  -0.00     0.00   0.00   0.00
  69   6     0.00   0.00   0.00    -0.00  -0.00  -0.00    -0.00  -0.00   0.00
  70   6     0.00  -0.00   0.00     0.00   0.00  -0.00    -0.00  -0.00  -0.00
  71   6     0.00   0.00  -0.00     0.00   0.00   0.00    -0.00  -0.00   0.00
  72   6     0.00  -0.00  -0.00     0.00   0.00   0.00    -0.00   0.00   0.00
  73   7     0.00   0.00  -0.00     0.00   0.00  -0.00     0.00   0.00  -0.00
  74   6     0.00  -0.00   0.00    -0.00  -0.00  -0.00     0.00  -0.00   0.00
  75   6     0.00  -0.00   0.00    -0.00  -0.00  -0.00     0.00  -0.00   0.00
  76   7    -0.00   0.00   0.00    -0.00   0.00   0.00    -0.00   0.00  -0.00
  77   6     0.00  -0.01   0.00     0.00  -0.00  -0.00     0.00  -0.00   0.00
  78   7    -0.00   0.00   0.00     0.00  -0.00   0.00    -0.00   0.00  -0.00
  79   6    -0.00  -0.00  -0.00    -0.00   0.00  -0.00    -0.00  -0.00  -0.00
  80   7     0.00   0.00   0.00     0.00  -0.00   0.00     0.00   0.00  -0.00
  81   8    -0.00   0.01  -0.00    -0.00   0.00   0.00    -0.00   0.00  -0.00
  82   8     0.00   0.00   0.00    -0.00  -0.00   0.00     0.00   0.00   0.00
  83   6    -0.00  -0.00   0.00    -0.00   0.00  -0.00    -0.00  -0.00   0.00
  84   6     0.00  -0.00   0.00    -0.00   0.00  -0.00    -0.00  -0.00   0.00
  85   1    -0.00   0.00   0.00     0.00  -0.00   0.00    -0.00   0.00   0.00
  86   1     0.00   0.00   0.00    -0.00   0.00  -0.00     0.00   0.00   0.00
  87   1     0.00   0.00   0.00    -0.00  -0.00  -0.00     0.00   0.00   0.00
  88   1     0.00   0.00   0.00    -0.00  -0.00  -0.00     0.00   0.00   0.00
  89   1     0.00  -0.00  -0.00     0.00   0.00  -0.00    -0.00   0.00   0.00
  90   1     0.00  -0.00   0.00     0.00  -0.00   0.00    -0.00   0.00  -0.00
  91   1    -0.00   0.00  -0.00    -0.00  -0.00   0.00     0.00   0.00  -0.00
  92   1    -0.00   0.00  -0.00    -0.00  -0.00   0.00     0.00   0.00  -0.00
  93   1    -0.00   0.00  -0.00     0.00   0.00   0.00     0.00   0.00   0.00
  94   1    -0.00  -0.00   0.00     0.00   0.00  -0.00     0.00   0.00  -0.00
  95   1    -0.00  -0.00  -0.00     0.00   0.00   0.00    -0.00  -0.00  -0.00
  96   1     0.00   0.00   0.00     0.00   0.00   0.00    -0.00   0.00  -0.00
  97   1     0.00  -0.00   0.00    -0.00  -0.00  -0.00     0.00  -0.00   0.00
  98   1    -0.00  -0.00  -0.00     0.00  -0.00  -0.00     0.00  -0.00  -0.00
  99   1     0.00  -0.00  -0.00     0.00  -0.00  -0.00     0.00   0.00  -0.00
 100   1    -0.00  -0.00  -0.00     0.00  -0.00   0.00    -0.00   0.00  -0.00
 101   1    -0.00   0.00   0.00     0.00   0.00  -0.00     0.00  -0.00   0.00
 102   1     0.00  -0.00   0.00     0.00   0.00  -0.00     0.00  -0.00   0.00
 103   1    -0.00   0.00   0.00    -0.00  -0.00  -0.00    -0.00   0.00   0.00
 104   1     0.00  -0.00  -0.00     0.00  -0.00   0.00    -0.00   0.00   0.00
 105   1    -0.00   0.00   0.00    -0.00   0.00   0.00    -0.00  -0.00   0.00
 106   1    -0.00   0.00  -0.00     0.00   0.00   0.00    -0.00  -0.00   0.00
 107   1    -0.00  -0.00  -0.00     0.00  -0.00   0.00     0.00  -0.00   0.00
 108   1    -0.00  -0.00   0.00     0.00  -0.00  -0.00     0.00  -0.00  -0.00
 109   1    -0.00  -0.00  -0.00     0.00  -0.00   0.00    -0.00   0.00   0.00
 110   1     0.00  -0.00  -0.00     0.00  -0.00  -0.00     0.00  -0.00   0.00
 111   1     0.00   0.00  -0.00    -0.00   0.00   0.00    -0.00   0.00   0.00
 112   1    -0.00  -0.00  -0.00     0.00   0.00   0.00    -0.00  -0.00  -0.00
 113   1     0.00  -0.00  -0.00    -0.00   0.00   0.00     0.00  -0.00  -0.00
 114   1    -0.00   0.00  -0.00     0.00  -0.00  -0.00     0.00  -0.00  -0.00
 115   1    -0.00   0.00  -0.00     0.00  -0.00   0.00     0.00   0.00   0.00
 116   1     0.00  -0.00   0.00    -0.00  -0.00  -0.00    -0.00   0.00  -0.00
 117   1     0.00  -0.00  -0.00    -0.00   0.00   0.00    -0.00   0.00  -0.00
 118   1    -0.00   0.00   0.00    -0.00  -0.00  -0.00     0.00  -0.00  -0.00
 119   1    -0.00  -0.00   0.00    -0.00  -0.00  -0.00     0.00   0.00  -0.00
 120   1     0.00   0.00  -0.00    -0.00  -0.00   0.00    -0.00  -0.00   0.00
 121   1    -0.00   0.00  -0.00    -0.00  -0.00   0.00     0.00   0.00  -0.00
 122   1    -0.00   0.00  -0.00     0.00   0.00   0.00    -0.00   0.00  -0.00
 123   1     0.00   0.00  -0.00     0.00  -0.00   0.00     0.00   0.00  -0.00
 124   1    -0.00  -0.00   0.00    -0.00  -0.00   0.00    -0.00  -0.00   0.00
 125   1    -0.00   0.00   0.00     0.00   0.00   0.00     0.00   0.00   0.00
 126   1    -0.00  -0.00  -0.00     0.00  -0.00   0.00     0.00  -0.00  -0.00
 127   6     0.00  -0.00   0.00    -0.00   0.00   0.00     0.00  -0.00  -0.00
 128   6     0.00  -0.00   0.00    -0.00  -0.00   0.00     0.00  -0.00  -0.00
 129   6    -0.00  -0.00  -0.00    -0.00   0.00  -0.00     0.00   0.00   0.00
 130   6     0.00  -0.00   0.00    -0.00  -0.00  -0.00     0.00   0.00   0.00
 131   6     0.00   0.00  -0.00    -0.00   0.00  -0.00    -0.00  -0.00   0.00
 132   6     0.00  -0.00   0.00     0.00   0.00   0.00    -0.00  -0.00   0.00
 133   6     0.01  -0.00   0.01    -0.01   0.01  -0.00    -0.00  -0.01   0.00
 134   7     0.15  -0.02   0.24    -0.19   0.08   0.08    -0.16  -0.13   0.12
 135   1    -0.00   0.00   0.00     0.00  -0.00   0.00    -0.00   0.00  -0.00
 136   1    -0.00   0.00  -0.00    -0.00  -0.00  -0.00     0.00  -0.00   0.00
 137   1     0.00   0.00  -0.00     0.00   0.00  -0.00    -0.00   0.00   0.00
 138   1    -0.00   0.00  -0.00     0.00  -0.00   0.00     0.00   0.00  -0.00
 139   1     0.00   0.00   0.00    -0.00  -0.00   0.00    -0.00  -0.00  -0.00
 140   1    -0.00  -0.00   0.00     0.00  -0.00   0.00     0.00  -0.00  -0.00
 141   1    -0.01   0.01  -0.00     0.00  -0.00   0.00    -0.00   0.00  -0.00
 142   1     0.00  -0.00   0.00     0.00  -0.00   0.00    -0.00   0.00  -0.00
 143   1    -0.00  -0.00   0.00    -0.00  -0.00   0.00     0.00   0.00  -0.00
 144   1    -0.00   0.00  -0.00     0.00   0.00  -0.00    -0.00   0.00  -0.00
 145   1    -0.00  -0.00  -0.00    -0.00  -0.00  -0.00     0.00   0.00   0.00
 146   1    -0.03   0.01  -0.01     0.04  -0.02   0.01    -0.00   0.00  -0.00
 147   1     0.00   0.00  -0.00    -0.00  -0.00   0.00     0.02   0.01  -0.01
 148   1    -0.13  -0.10  -0.81    -0.10  -0.05  -0.48    -0.01  -0.00   0.06
 149   1     0.03   0.01   0.01     0.02   0.03  -0.02     0.66   0.51  -0.49
 150   1    -0.44   0.17  -0.09     0.77  -0.28   0.19    -0.05   0.00   0.00
