 Entering Gaussian System
 *********************************************
 Gaussian 98:
 frequency output generated by the xtb code
 *********************************************
                         Standard orientation:
 --------------------------------------------------------------------
  Center     Atomic     Atomic              Coordinates (Angstroms)
  Number     Number      Type              X           Y           Z
 --------------------------------------------------------------------
    1          7             0        1.513970   -0.322515   -5.151976
    2          6             0        1.254566    0.978256   -5.720042
    3          6             0       -0.279063    0.985826   -5.945826
    4          7             0       -0.694260   -0.280480   -5.388487
    5          6             0        0.362375   -1.041042   -4.959702
    6          7             0        1.453406    2.072838   -4.801609
    7          6             0        0.290844    2.729209   -4.497071
    8          7             0       -0.727820    2.131515   -5.200221
    9          8             0        0.294462   -2.182588   -4.559702
   10          8             0        0.182895    3.705222   -3.788609
   11          7             0       -2.919776   -0.203108   -4.448320
   12          6             0       -3.732083    0.971700   -4.670370
   13          6             0       -4.732295    0.947018   -3.486068
   14          7             0       -4.307596   -0.197812   -2.705863
   15          6             0       -3.330122   -0.916619   -3.353667
   16          7             0       -3.033007    2.221344   -4.485346
   17          6             0       -3.489788    2.923698   -3.408275
   18          7             0       -4.509343    2.208315   -2.830180
   19          8             0       -2.904601   -2.001106   -3.020567
   20          8             0       -3.094995    4.009140   -3.037386
   21          7             0        5.253305   -1.209889    0.183909
   22          6             0        5.767029   -0.090000    0.932164
   23          6             0        5.298292   -0.373052    2.382403
   24          7             0        4.528108   -1.589302    2.255788
   25          6             0        4.603973   -2.111177    0.989764
   26          7             0        5.155712    1.178645    0.630962
   27          6             0        4.443018    1.687678    1.684551
   28          7             0        4.536036    0.797359    2.721333
   29          8             0        4.247522   -3.220966    0.660302
   30          8             0        3.908770    2.774317    1.724051
   31          7             0       -1.542721   -1.582115    4.803160
   32          6             0       -2.120260   -0.563105    5.653845
   33          6             0       -3.449851   -0.197449    4.937244
   34          7             0       -3.474751   -1.077628    3.785759
   35          6             0       -2.365182   -1.900394    3.752421
   36          7             0       -1.389914    0.678603    5.661911
   37          6             0       -2.022304    1.669608    4.969798
   38          7             0       -3.279124    1.210686    4.640460
   39          8             0       -2.165476   -2.777779    2.941940
   40          8             0       -1.610613    2.788286    4.764722
   41          7             0       -4.810795   -0.396737   -0.348882
   42          6             0       -5.156160    0.916110    0.198716
   43          6             0       -5.071604    0.661925    1.760246
   44          7             0       -4.937658   -0.766627    1.849196
   45          6             0       -4.840075   -1.376111    0.625435
   46          7             0       -4.487496    2.057715   -0.410536
   47          6             0       -2.613556    2.658317    1.047302
   48          7             0       -3.994676    1.363231    2.416156
   49          8             0       -4.836346   -2.569309    0.433034
   50          8             0       -2.375186    3.731750    1.511926
   51          6             0        4.095427   -2.377549    3.383911
   52          6             0       -2.019680    2.739812   -5.369082
   53          6             0        4.156364    1.135903    4.062131
   54          6             0       -2.041357   -0.773436   -5.445295
   55          7             0        3.630724   -0.539896   -3.971877
   56          6             0        4.332086    0.717606   -3.871871
   57          6             0        5.231616    0.528456   -2.621371
   58          7             0        4.949588   -0.824201   -2.203881
   59          6             0        4.029166   -1.437531   -3.015248
   60          7             0        3.493442    1.835437   -3.520194
   61          6             0        3.747514    2.301755   -2.256330
   62          7             0        4.761210    1.551106   -1.721321
   63          8             0        3.679590   -2.596478   -2.945755
   64          8             0        3.217991    3.258473   -1.733026
   65          6             0        2.826673   -0.917705   -5.105823
   66          6             0        2.747539    2.607251   -4.476491
   67          6             0        5.465185    1.956575   -0.535189
   68          6             0        5.665457   -1.520187   -1.163650
   69          6             0       -5.152080   -0.783976   -1.699288
   70          6             0       -5.132963    2.613956   -1.597287
   71          6             0       -4.703156   -1.445876    3.101944
   72          6             0       -4.098410    1.954653    3.726708
   73          7             0        1.002383    0.380225    5.553870
   74          6             0        1.533499   -0.945448    5.706204
   75          6             0        2.933774   -0.855757    5.048414
   76          7             0        2.961854    0.486364    4.524114
   77          6             0        1.830033    1.196987    4.826547
   78          7             0        0.865156   -1.959064    4.921135
   79          6             0        1.718456   -2.574227    4.037619
   80          7             0        2.911931   -1.898453    4.052098
   81          8             0        1.633272    2.363925    4.570313
   82          8             0        1.487424   -3.592177    3.422417
   83          6             0       -0.119166    0.881549    6.299836
   84          6             0       -0.457109   -2.448284    5.214947
   85          1             0        1.862270    1.124368   -6.623391
   86          1             0       -0.600750    1.061497   -6.993084
   87          1             0       -4.191090    0.935384   -5.666985
   88          1             0       -5.788785    0.843930   -3.766643
   89          1             0        6.856749   -0.019895    0.799812
   90          1             0        6.106620   -0.517547    3.114314
   91          1             0       -2.233779   -0.941178    6.678162
   92          1             0       -4.353691   -0.337948    5.542510
   93          1             0       -6.219636    1.105042   -0.005619
   94          1             0       -5.999861    0.996308    2.239377
   95          1             0        4.912482   -2.432387    4.115378
   96          1             0        3.855761   -3.372556    2.991295
   97          1             0       -2.342641    2.609392   -6.406162
   98          1             0       -1.916626    3.801216   -5.116136
   99          1             0        3.947622    2.212221    4.070228
  100          1             0        4.983995    0.889064    4.739302
  101          1             0       -1.988591   -1.850273   -5.247214
  102          1             0       -2.461539   -0.576355   -6.437160
  103          1             0        4.869430    0.926238   -4.807372
  104          1             0        6.309556    0.648384   -2.797083
  105          1             0        3.361780   -0.652577   -6.025990
  106          1             0        2.686084   -2.002567   -5.037764
  107          1             0        2.571337    3.589722   -4.023345
  108          1             0        3.338062    2.698162   -5.396701
  109          1             0        5.152248    2.983998   -0.314592
  110          1             0        6.543206    1.904520   -0.726985
  111          1             0        6.734006   -1.299225   -1.266551
  112          1             0        5.470723   -2.588479   -1.312406
  113          1             0       -5.021717   -1.872846   -1.727012
  114          1             0       -6.195896   -0.526036   -1.921846
  115          1             0       -6.186369    2.333530   -1.614885
  116          1             0       -5.043448    3.704590   -1.553033
  117          1             0       -4.649640   -2.509499    2.844231
  118          1             0       -5.544532   -1.252695    3.774538
  119          1             0       -5.143145    1.945723    4.041111
  120          1             0       -3.698111    2.977176    3.722863
  121          1             0        1.532150   -1.232957    6.767273
  122          1             0        3.781417   -1.010405    5.731658
  123          1             0       -0.132748    0.406434    7.285452
  124          1             0        0.009549    1.966757    6.381693
  125          1             0       -0.565257   -3.386306    4.658068
  126          1             0       -0.547514   -2.622059    6.293633
  127          6             0        1.152439    0.526943    1.421315
  128          6             0        0.536750   -0.605636    1.925352
  129          6             0        0.688496   -1.830522    1.296175
  130          6             0        1.486407   -1.953563    0.164495
  131          6             0        1.603520   -3.274365   -0.549541
  132          6             0        0.794687   -3.270423   -1.862594
  133          7             0       -0.403958   -2.565869   -1.555060
  134          7             0       -1.314958   -3.103589   -0.791506
  135          7             0       -1.996663   -2.156226   -0.276248
  136          6             0       -1.482954   -1.007001   -0.773365
  137          6             0       -1.955298    0.246473   -0.254578
  138          6             0       -2.387647    0.207199    1.076742
  139          6             0       -2.846413    1.347529    1.687403
  140          6             0       -3.071054    2.384247   -0.392533
  141          7             0       -2.231451    1.322358   -0.973506
  142          7             0       -0.479911   -1.261923   -1.606565
  143          6             0        2.081138   -0.803454   -0.343887
  144          6             0        1.916493    0.424558    0.271312
  145          1             0        1.033826    1.484468    1.910249
  146          1             0       -0.083307   -0.530202    2.806521
  147          1             0        0.163591   -2.695143    1.676878
  148          1             0        1.227285   -4.058117    0.108489
  149          1             0        2.642883   -3.488015   -0.793559
  150          1             0        1.318885   -2.749013   -2.658969
  151          1             0        0.545526   -4.280940   -2.176151
  152          1             0       -2.473335   -0.770246    1.519024
  153          1             0      -10.487534   -0.487969   -0.384725
  154          1             0       -2.924260    3.300704   -0.976381
  155          1             0       -2.096628    1.307150   -1.975512
  156          1             0        2.656750   -0.875958   -1.249571
  157          1             0        2.360722    1.315492   -0.146378
 --------------------------------------------------------------------
     1 basis functions        1 primitive gaussians
     1 alpha electrons        1 beta electrons

 Harmonic frequencies (cm**-1), IR intensities (km*mol⁻¹),
 Raman scattering activities (A**4/amu), Raman depolarization ratios,
 reduced masses (AMU), force constants (mDyne/A) and normal coordinates:
                      1                      2                      3
                        a                      a                      a 
 Frequencies --    12.5805                23.6990                28.0267
 Red. masses --    12.3740                12.9936                12.8888
 Frc consts  --     0.0000                 0.0000                 0.0000
 IR Inten    --     1.4428                 1.7621                 8.0800
 Raman Activ --     0.0000                 0.0000                 0.0000
 Depolar     --     0.0000                 0.0000                 0.0000
 Atom AN      X      Y      Z        X      Y      Z        X      Y      Z
   1   7     0.03   0.02  -0.09     0.03  -0.02  -0.00     0.01  -0.01   0.03
   2   6     0.02   0.02  -0.08     0.03  -0.01   0.01     0.01  -0.04  -0.04
   3   6     0.01   0.02  -0.05     0.03   0.00   0.05     0.01  -0.03  -0.00
   4   7     0.02   0.02  -0.05     0.03  -0.01   0.03     0.00   0.00   0.07
   5   6     0.03   0.01  -0.09     0.03  -0.02   0.00     0.00   0.01   0.09
   6   7     0.04   0.02  -0.09     0.08  -0.02   0.01     0.06   0.01  -0.12
   7   6     0.04   0.02  -0.06     0.08  -0.02   0.05     0.07   0.04  -0.11
   8   7     0.03   0.02  -0.04     0.06  -0.01   0.09     0.04   0.01  -0.04
   9   8     0.04  -0.00  -0.13     0.04  -0.02  -0.02    -0.01   0.04   0.19
  10   8     0.07   0.02  -0.07     0.13  -0.02   0.07     0.12   0.11  -0.20
  11   7     0.04   0.01   0.00     0.04  -0.00   0.04    -0.01   0.01   0.04
  12   6     0.04   0.01   0.02     0.05   0.01   0.05     0.02   0.03   0.02
  13   6     0.05   0.01   0.03     0.02  -0.01   0.03     0.02   0.06   0.02
  14   7     0.06   0.00   0.02     0.02  -0.01   0.03    -0.04   0.04   0.01
  15   6     0.05   0.00   0.00     0.03  -0.01   0.04    -0.05   0.02   0.03
  16   7     0.05   0.01   0.02     0.06  -0.00   0.10     0.06   0.01   0.02
  17   6     0.06   0.00   0.03     0.02  -0.01   0.08     0.09   0.02   0.03
  18   7     0.07   0.00   0.04    -0.00  -0.01   0.04     0.08   0.05   0.03
  19   8     0.06   0.00  -0.01     0.03  -0.01   0.04    -0.09   0.01   0.03
  20   8     0.09  -0.00   0.04     0.01  -0.01   0.11     0.15   0.00   0.04
  21   7    -0.13   0.00   0.00     0.03  -0.03  -0.03     0.05   0.06  -0.01
  22   6    -0.11   0.01  -0.01     0.04  -0.03  -0.03    -0.01   0.08  -0.02
  23   6    -0.10   0.02  -0.01    -0.01  -0.00  -0.04    -0.03   0.08  -0.02
  24   7    -0.10   0.02   0.02    -0.00  -0.01  -0.04     0.02   0.05  -0.03
  25   6    -0.10   0.00   0.02     0.01  -0.02  -0.03     0.05   0.04  -0.02
  26   7    -0.11   0.01  -0.02     0.09  -0.02  -0.06    -0.05   0.06  -0.04
  27   6    -0.11   0.01  -0.03     0.05   0.00  -0.10    -0.08   0.04  -0.06
  28   7    -0.12   0.02  -0.02    -0.02   0.00  -0.09    -0.08   0.06  -0.05
  29   8    -0.10  -0.01   0.04     0.01  -0.02  -0.03     0.10   0.04  -0.03
  30   8    -0.14   0.00  -0.05     0.09   0.02  -0.14    -0.13   0.03  -0.08
  31   7    -0.01   0.02   0.10    -0.02  -0.01  -0.02    -0.01  -0.03  -0.04
  32   6    -0.04   0.01   0.08    -0.02  -0.02  -0.00    -0.02  -0.06   0.00
  33   6    -0.02   0.01   0.04    -0.05  -0.05   0.03    -0.01  -0.04   0.00
  34   7     0.01   0.01   0.05    -0.05  -0.04   0.02    -0.02  -0.02  -0.01
  35   6     0.02   0.01   0.07    -0.03  -0.02  -0.01    -0.02  -0.01  -0.03
  36   7    -0.05   0.01   0.11    -0.05  -0.01  -0.03    -0.03  -0.06   0.07
  37   6    -0.03   0.01   0.09    -0.10  -0.02   0.01    -0.01  -0.04   0.08
  38   7    -0.02   0.01   0.05    -0.11  -0.05   0.06     0.01  -0.03   0.03
  39   8     0.05   0.02   0.08    -0.03  -0.01  -0.02    -0.03  -0.00  -0.05
  40   8    -0.03   0.02   0.12    -0.16  -0.00   0.02    -0.01  -0.03   0.16
  41   7     0.07  -0.01   0.02    -0.02  -0.02   0.02    -0.05   0.04   0.00
  42   6     0.06  -0.01   0.02    -0.05  -0.03   0.03     0.01   0.04   0.02
  43   6     0.04  -0.01   0.02    -0.08  -0.04   0.03     0.01   0.02   0.01
  44   7     0.05  -0.01   0.02    -0.05  -0.04   0.02    -0.04   0.02   0.00
  45   6     0.06  -0.01   0.02    -0.02  -0.03   0.01    -0.07   0.03  -0.01
  46   7     0.07  -0.00   0.04    -0.07  -0.01   0.05     0.06   0.02   0.03
  47   6     0.06  -0.02   0.05    -0.12   0.02   0.09     0.09  -0.07   0.03
  48   7     0.04  -0.01   0.03    -0.12  -0.03   0.06     0.03  -0.02   0.02
  49   8     0.07  -0.01   0.02     0.01  -0.03   0.00    -0.12   0.03  -0.02
  50   8     0.07  -0.02   0.05    -0.20   0.03   0.13     0.17  -0.10   0.04
  51   6    -0.06   0.02   0.03    -0.01   0.00  -0.03     0.02   0.04  -0.03
  52   6     0.02   0.02  -0.00     0.06   0.01   0.11     0.04   0.01  -0.01
  53   6    -0.10   0.04  -0.02    -0.06   0.03  -0.11    -0.09   0.06  -0.05
  54   6     0.02   0.01  -0.02     0.03  -0.00   0.04     0.00  -0.01   0.06
  55   7     0.02  -0.00  -0.07     0.05  -0.04  -0.03     0.02  -0.00  -0.00
  56   6     0.02  -0.01  -0.04     0.07  -0.05  -0.05     0.04  -0.01  -0.05
  57   6    -0.02  -0.01  -0.01     0.08  -0.06  -0.06     0.02   0.03  -0.03
  58   7    -0.06  -0.01  -0.02     0.05  -0.05  -0.03     0.04   0.04  -0.01
  59   6    -0.02  -0.01  -0.06     0.03  -0.03  -0.02     0.02   0.02   0.02
  60   7     0.02   0.00  -0.08     0.11  -0.03  -0.05     0.05   0.02  -0.11
  61   6    -0.02   0.00  -0.06     0.14  -0.01  -0.06     0.00   0.03  -0.10
  62   7    -0.05  -0.01  -0.03     0.14  -0.03  -0.07    -0.02   0.04  -0.06
  63   8    -0.01  -0.01  -0.10    -0.00  -0.02   0.00    -0.00   0.04   0.07
  64   8    -0.04   0.01  -0.09     0.20   0.01  -0.08    -0.02   0.04  -0.15
  65   6     0.03   0.02  -0.08     0.03  -0.03  -0.02    -0.00  -0.03   0.03
  66   6     0.04  -0.00  -0.09     0.09  -0.03  -0.04     0.07  -0.01  -0.14
  67   6    -0.08   0.00  -0.01     0.13  -0.05  -0.06    -0.05   0.06  -0.04
  68   6    -0.09  -0.02   0.01     0.03  -0.04  -0.02     0.05   0.06  -0.01
  69   6     0.07  -0.00   0.02     0.01  -0.02   0.01    -0.06   0.06   0.00
  70   6     0.07   0.01   0.04    -0.04  -0.02   0.03     0.08   0.06   0.03
  71   6     0.03  -0.01   0.02    -0.04  -0.04   0.01    -0.03  -0.00  -0.01
  72   6     0.01   0.00   0.02    -0.14  -0.06   0.07     0.04  -0.01   0.01
  73   7    -0.05   0.01   0.08    -0.05   0.02  -0.10    -0.03  -0.04   0.04
  74   6    -0.02   0.02   0.08    -0.03   0.03  -0.07    -0.01  -0.03  -0.03
  75   6    -0.04   0.03   0.04    -0.03   0.03  -0.08    -0.02   0.02  -0.04
  76   7    -0.08   0.02   0.01    -0.06   0.02  -0.12    -0.08   0.02  -0.05
  77   6    -0.08   0.01   0.02    -0.07   0.01  -0.12    -0.07  -0.01   0.01
  78   7    -0.02  -0.01   0.13    -0.02   0.00  -0.05    -0.00  -0.01  -0.07
  79   6    -0.04  -0.01   0.10    -0.02  -0.00  -0.04     0.02   0.00  -0.05
  80   7    -0.05   0.01   0.06    -0.02   0.01  -0.05     0.01   0.02  -0.04
  81   8    -0.13  -0.01  -0.00    -0.11  -0.00  -0.18    -0.12  -0.01   0.03
  82   8    -0.05  -0.02   0.14    -0.01  -0.01  -0.03     0.04   0.00  -0.07
  83   6    -0.04   0.00   0.09    -0.03   0.02  -0.07    -0.02  -0.08   0.07
  84   6    -0.02   0.01   0.12    -0.01  -0.01  -0.03     0.00  -0.03  -0.07
  85   1    -0.00   0.00  -0.03     0.00  -0.01  -0.00    -0.00  -0.03  -0.02
  86   1    -0.00   0.01  -0.01     0.00   0.01   0.02    -0.01  -0.02   0.00
  87   1     0.01   0.01   0.01     0.02   0.01   0.01     0.01   0.01   0.01
  88   1     0.01   0.00   0.01     0.01  -0.01   0.00     0.00   0.03   0.00
  89   1    -0.03  -0.00  -0.00     0.01  -0.02   0.00    -0.00   0.03   0.00
  90   1    -0.03   0.01  -0.00    -0.01   0.00  -0.00    -0.01   0.03  -0.00
  91   1    -0.02   0.00   0.02     0.00  -0.01   0.00    -0.01  -0.03  -0.01
  92   1    -0.01   0.00   0.01    -0.01  -0.03   0.01    -0.00  -0.01   0.00
  93   1     0.02  -0.00   0.00    -0.02  -0.01   0.00     0.01   0.03   0.01
  94   1     0.01  -0.00   0.00    -0.03  -0.02   0.00     0.00   0.01   0.01
  95   1    -0.01   0.01   0.00    -0.01   0.00  -0.01     0.00   0.02  -0.01
  96   1    -0.02   0.00   0.01    -0.00  -0.00  -0.01     0.01   0.01  -0.01
  97   1    -0.00   0.01   0.00     0.02   0.02   0.03     0.00  -0.00  -0.00
  98   1     0.01   0.00   0.00     0.02   0.00   0.04     0.01   0.00  -0.01
  99   1    -0.04   0.01  -0.01    -0.02   0.01  -0.04    -0.04   0.01  -0.02
 100   1    -0.02   0.02  -0.01    -0.02   0.02  -0.02    -0.02   0.03  -0.01
 101   1     0.01   0.00  -0.01     0.01  -0.00   0.01     0.00  -0.00   0.02
 102   1    -0.00   0.01  -0.00     0.01   0.00   0.01     0.01  -0.01   0.01
 103   1     0.02  -0.00  -0.01     0.02  -0.02  -0.02     0.01  -0.02  -0.01
 104   1    -0.01  -0.01   0.01     0.02  -0.03  -0.02     0.01   0.01  -0.00
 105   1     0.01   0.01  -0.02     0.01  -0.01  -0.01    -0.00  -0.02   0.00
 106   1     0.01   0.00  -0.03     0.01  -0.01  -0.00    -0.00  -0.01   0.02
 107   1     0.02   0.00  -0.03     0.03  -0.01  -0.01     0.03   0.01  -0.05
 108   1     0.01  -0.01  -0.03     0.02  -0.02  -0.02     0.02  -0.02  -0.04
 109   1    -0.03   0.00  -0.01     0.05  -0.01  -0.02    -0.02   0.01  -0.01
 110   1    -0.02   0.00   0.00     0.04  -0.03  -0.01    -0.01   0.02  -0.01
 111   1    -0.02  -0.01   0.01     0.01  -0.02  -0.01     0.01   0.02  -0.00
 112   1    -0.03  -0.00   0.00     0.01  -0.01  -0.00     0.02   0.01  -0.00
 113   1     0.02  -0.00   0.00     0.01  -0.00   0.00    -0.03   0.02  -0.00
 114   1     0.02  -0.00   0.01     0.00  -0.01  -0.00    -0.02   0.03   0.00
 115   1     0.02   0.01   0.01    -0.01  -0.01  -0.00     0.02   0.03   0.01
 116   1     0.02   0.00   0.01    -0.02  -0.01   0.01     0.04   0.02   0.01
 117   1     0.01  -0.00   0.01    -0.01  -0.01   0.00    -0.01   0.00  -0.01
 118   1     0.00  -0.01   0.00    -0.01  -0.02   0.00    -0.01  -0.00   0.00
 119   1     0.00   0.00  -0.00    -0.04  -0.03   0.02     0.01   0.01   0.00
 120   1     0.01   0.00   0.01    -0.05  -0.01   0.03     0.02  -0.01   0.00
 121   1     0.01   0.01   0.02    -0.01   0.01  -0.02     0.00  -0.02  -0.01
 122   1    -0.00   0.02   0.01    -0.01   0.02  -0.02    -0.00   0.01  -0.01
 123   1    -0.01  -0.00   0.02     0.00   0.01  -0.02    -0.00  -0.04   0.01
 124   1    -0.01   0.00   0.03    -0.01   0.01  -0.03    -0.01  -0.02   0.04
 125   1    -0.01   0.00   0.04    -0.00  -0.00  -0.01     0.00  -0.00  -0.03
 126   1    -0.01   0.01   0.04     0.00  -0.00  -0.01     0.00  -0.02  -0.02
 127   6    -0.00  -0.07  -0.07     0.02   0.11  -0.05    -0.01   0.01  -0.01
 128   6     0.12  -0.13  -0.05     0.03   0.11  -0.02    -0.07   0.06   0.02
 129   6     0.16  -0.10  -0.09     0.04   0.10  -0.01    -0.10   0.03   0.07
 130   6     0.07  -0.01  -0.16     0.03   0.09  -0.01    -0.06  -0.05   0.12
 131   6     0.08   0.01  -0.20     0.01   0.08   0.00    -0.06  -0.09   0.17
 132   6    -0.04  -0.01  -0.13    -0.02   0.07   0.03     0.02  -0.10   0.12
 133   7    -0.02  -0.02  -0.04    -0.02   0.07   0.06    -0.00  -0.10   0.05
 134   7     0.04  -0.02   0.03    -0.00   0.06   0.08    -0.05  -0.09   0.00
 135   7     0.07  -0.03   0.08    -0.00   0.05   0.09    -0.07  -0.08  -0.03
 136   6     0.03  -0.02   0.04    -0.02   0.05   0.08    -0.03  -0.08   0.00
 137   6     0.05  -0.02   0.05    -0.03   0.05   0.08    -0.01  -0.08   0.00
 138   6     0.05  -0.02   0.05    -0.05   0.03   0.07    -0.02  -0.07  -0.00
 139   6     0.05  -0.01   0.05    -0.09   0.01   0.08     0.03  -0.06   0.01
 140   6     0.06  -0.01   0.04    -0.07   0.02   0.08     0.07  -0.03   0.03
 141   7     0.06  -0.02   0.05    -0.04   0.05   0.09     0.03  -0.06   0.01
 142   7    -0.03  -0.02  -0.03    -0.03   0.07   0.06     0.01  -0.10   0.05
 143   6    -0.06   0.04  -0.18     0.03   0.08  -0.03     0.01  -0.10   0.09
 144   6    -0.09   0.01  -0.13     0.02   0.09  -0.05     0.03  -0.07   0.02
 145   1    -0.01  -0.03  -0.01     0.01   0.03  -0.02     0.00   0.01  -0.02
 146   1     0.05  -0.06   0.00     0.01   0.04  -0.01    -0.03   0.04  -0.00
 147   1     0.07  -0.04  -0.02     0.01   0.03   0.00    -0.05   0.02   0.02
 148   1     0.06  -0.01  -0.05     0.01   0.03   0.01    -0.04  -0.01   0.05
 149   1     0.02   0.02  -0.09     0.00   0.02  -0.01    -0.02  -0.04   0.07
 150   1    -0.03  -0.01  -0.05    -0.01   0.02   0.00     0.02  -0.03   0.04
 151   1    -0.02  -0.01  -0.03    -0.01   0.02   0.01     0.01  -0.03   0.03
 152   1     0.02  -0.00   0.02    -0.01   0.01   0.02    -0.02  -0.02  -0.01
 153   1     0.02  -0.01   0.01    -0.01  -0.03  -0.03    -0.00   0.05   0.03
 154   1     0.02  -0.00   0.01    -0.02   0.01   0.03     0.03  -0.01   0.01
 155   1     0.01  -0.01   0.01    -0.01   0.02   0.03     0.01  -0.01   0.00
 156   1    -0.04   0.03  -0.07     0.01   0.02  -0.01     0.02  -0.05   0.03
 157   1    -0.05   0.02  -0.04     0.01   0.03  -0.02     0.02  -0.03  -0.00
                      4                      5                      6
                        a                      a                      a 
 Frequencies --    35.1986                41.9710                43.5081
 Red. masses --    12.6333                12.6878                12.6879
 Frc consts  --     0.0000                 0.0000                 0.0000
 IR Inten    --     0.7538                 2.1574                 2.7701
 Raman Activ --     0.0000                 0.0000                 0.0000
 Depolar     --     0.0000                 0.0000                 0.0000
 Atom AN      X      Y      Z        X      Y      Z        X      Y      Z
   1   7     0.01   0.05   0.02    -0.09  -0.07   0.12     0.06  -0.00  -0.01
   2   6     0.01   0.07   0.06    -0.04  -0.06   0.10     0.01   0.00   0.02
   3   6     0.01   0.06   0.05    -0.03  -0.02   0.04     0.01  -0.03   0.04
   4   7     0.01   0.06   0.03    -0.08  -0.03  -0.00     0.05  -0.03   0.08
   5   6     0.01   0.04   0.00    -0.10  -0.05   0.03     0.07  -0.02   0.01
   6   7    -0.01   0.04   0.12    -0.05  -0.07   0.11    -0.00  -0.01   0.04
   7   6    -0.02   0.02   0.11    -0.05  -0.05   0.08    -0.01  -0.02   0.03
   8   7    -0.00   0.05   0.07    -0.04  -0.04   0.05     0.00  -0.03   0.02
   9   8     0.01   0.04  -0.03    -0.16  -0.07  -0.00     0.12  -0.05  -0.04
  10   8    -0.04  -0.01   0.17    -0.07  -0.08   0.12    -0.03  -0.02   0.03
  11   7     0.00   0.03   0.01    -0.08   0.04  -0.03     0.05  -0.05   0.10
  12   6    -0.01   0.03   0.02    -0.07   0.05  -0.03     0.03  -0.07   0.05
  13   6    -0.01   0.01   0.02    -0.06   0.06  -0.02     0.01  -0.05   0.04
  14   7    -0.01   0.00   0.01    -0.09   0.05  -0.04     0.00  -0.04   0.07
  15   6    -0.01   0.01  -0.01    -0.08   0.04  -0.02    -0.00  -0.06   0.07
  16   7    -0.01   0.04   0.04    -0.06   0.04  -0.03     0.01  -0.06   0.02
  17   6    -0.02   0.02   0.04    -0.03   0.04  -0.02    -0.00  -0.03   0.00
  18   7    -0.02   0.01   0.03    -0.03   0.05  -0.01     0.01  -0.04   0.02
  19   8    -0.03  -0.01  -0.04    -0.09   0.05  -0.02    -0.04  -0.08   0.08
  20   8    -0.04   0.03   0.05    -0.01   0.03  -0.02    -0.02  -0.02  -0.02
  21   7     0.01   0.02  -0.01     0.04   0.00   0.04     0.04   0.00  -0.03
  22   6     0.05  -0.01   0.00     0.03   0.01   0.04     0.00  -0.00   0.00
  23   6    -0.01   0.01  -0.01    -0.02   0.03   0.03    -0.01  -0.04  -0.01
  24   7    -0.04   0.03  -0.02     0.02   0.01   0.04    -0.03  -0.03  -0.06
  25   6    -0.03   0.03  -0.02     0.04   0.00   0.04     0.02  -0.01  -0.06
  26   7     0.14   0.02  -0.01     0.07   0.01   0.00    -0.03  -0.01   0.02
  27   6     0.09   0.04  -0.05    -0.00   0.02  -0.05    -0.01  -0.03   0.03
  28   7     0.01   0.04  -0.05    -0.08   0.02  -0.04     0.00  -0.04   0.02
  29   8    -0.07   0.05  -0.04     0.06  -0.01   0.05     0.06  -0.02  -0.09
  30   8     0.14   0.07  -0.08    -0.00   0.02  -0.10    -0.02  -0.03   0.07
  31   7    -0.02   0.06   0.04     0.02  -0.00  -0.02    -0.07   0.04  -0.03
  32   6    -0.02   0.07   0.02    -0.01  -0.04   0.01    -0.03   0.04   0.00
  33   6    -0.02   0.06   0.00     0.01  -0.02  -0.03    -0.03   0.08   0.03
  34   7    -0.02   0.04   0.02     0.04  -0.01  -0.04    -0.11   0.07   0.05
  35   6    -0.02   0.04   0.04     0.05   0.02  -0.04    -0.11   0.06   0.00
  36   7    -0.02   0.08  -0.01    -0.03  -0.03   0.09     0.01   0.02   0.01
  37   6    -0.02   0.06  -0.02     0.00  -0.02   0.08     0.04   0.03  -0.01
  38   7    -0.02   0.06  -0.01     0.03  -0.02  -0.01     0.03   0.08   0.00
  39   8    -0.02   0.03   0.07     0.10   0.05  -0.08    -0.17   0.07  -0.02
  40   8    -0.03   0.07  -0.04    -0.00  -0.00   0.17     0.10   0.01  -0.03
  41   7    -0.02  -0.04   0.01    -0.04   0.03  -0.03    -0.05   0.00   0.06
  42   6    -0.01  -0.03   0.00     0.01   0.03  -0.00    -0.03   0.02   0.03
  43   6    -0.01  -0.03  -0.00     0.04   0.00  -0.01    -0.04   0.06   0.03
  44   7    -0.03  -0.03   0.01     0.03   0.00  -0.04    -0.13   0.06   0.07
  45   6    -0.03  -0.03   0.01    -0.00   0.02  -0.04    -0.09   0.03   0.08
  46   7     0.01  -0.04   0.02     0.02   0.02  -0.01     0.00  -0.01   0.02
  47   6     0.06  -0.10  -0.01     0.07  -0.04  -0.04     0.06  -0.07  -0.02
  48   7     0.01  -0.05  -0.02     0.06  -0.02  -0.02     0.01   0.02   0.01
  49   8    -0.04  -0.04   0.02    -0.00   0.02  -0.07    -0.12   0.02   0.13
  50   8     0.14  -0.13  -0.02     0.15  -0.06  -0.05     0.16  -0.09  -0.03
  51   6    -0.05   0.03  -0.03     0.03   0.01   0.04    -0.07  -0.04  -0.08
  52   6    -0.00   0.05   0.06    -0.02   0.00  -0.00    -0.01  -0.05   0.01
  53   6    -0.03   0.06  -0.06    -0.11   0.06  -0.06     0.02  -0.06   0.03
  54   6     0.01   0.05   0.01    -0.09   0.02  -0.03     0.05  -0.06   0.10
  55   7     0.02   0.04  -0.01    -0.07  -0.07   0.11     0.07   0.04  -0.02
  56   6     0.01   0.04   0.01    -0.05  -0.06   0.04     0.04   0.05   0.00
  57   6     0.05   0.01  -0.02     0.01  -0.04  -0.00     0.04   0.05   0.00
  58   7     0.03   0.02  -0.01     0.04  -0.04   0.03     0.07   0.04  -0.02
  59   6     0.02   0.03  -0.01     0.02  -0.06   0.07     0.08   0.04  -0.03
  60   7     0.02   0.03   0.07    -0.03  -0.05   0.07     0.02   0.04   0.01
  61   6     0.09   0.02   0.06     0.05  -0.02   0.04     0.00   0.02   0.02
  62   7     0.13   0.03  -0.01     0.07  -0.02   0.00     0.01   0.03   0.02
  63   8     0.01   0.03  -0.02     0.08  -0.08   0.08     0.11   0.03  -0.05
  64   8     0.14   0.03   0.10     0.12   0.01   0.04    -0.02   0.01   0.03
  65   6     0.01   0.05  -0.00    -0.09  -0.09   0.12     0.07   0.04  -0.03
  66   6    -0.02   0.05   0.11    -0.05  -0.05   0.09    -0.01   0.02   0.02
  67   6     0.16  -0.01  -0.02     0.10  -0.03  -0.01    -0.02   0.02   0.04
  68   6     0.01   0.01  -0.01     0.05  -0.00   0.04     0.07   0.04  -0.03
  69   6    -0.01  -0.02  -0.00    -0.08   0.05  -0.02    -0.02  -0.02   0.06
  70   6     0.00  -0.00   0.04     0.01   0.04   0.01     0.01  -0.01   0.01
  71   6    -0.01   0.00   0.03     0.04  -0.02  -0.05    -0.13   0.09   0.09
  72   6     0.01   0.03  -0.06     0.07  -0.00  -0.03     0.05   0.07  -0.02
  73   7    -0.02   0.08  -0.05    -0.03  -0.03   0.06     0.00  -0.03   0.01
  74   6    -0.01   0.08  -0.02     0.01  -0.01   0.03    -0.04  -0.05  -0.04
  75   6    -0.02   0.07  -0.04    -0.01   0.03  -0.00    -0.04  -0.06  -0.04
  76   7    -0.04   0.06  -0.08    -0.09   0.02  -0.05     0.01  -0.05   0.02
  77   6    -0.03   0.06  -0.08    -0.09  -0.02  -0.00     0.03  -0.02   0.05
  78   7    -0.02   0.06   0.03     0.02  -0.02   0.02    -0.08   0.00  -0.09
  79   6    -0.04   0.04   0.02     0.02  -0.00   0.01    -0.08   0.00  -0.09
  80   7    -0.04   0.05  -0.02     0.02   0.00   0.03    -0.07  -0.02  -0.09
  81   8    -0.05   0.06  -0.13    -0.17  -0.04  -0.03     0.10   0.01   0.14
  82   8    -0.05   0.03   0.06     0.03   0.00   0.00    -0.12   0.02  -0.13
  83   6    -0.01   0.09  -0.03    -0.02  -0.06   0.09     0.01  -0.02   0.02
  84   6    -0.02   0.07   0.05     0.01  -0.01  -0.01    -0.07   0.01  -0.07
  85   1     0.00   0.03   0.02    -0.00  -0.02   0.03    -0.00   0.01   0.00
  86   1     0.00   0.02   0.01     0.00   0.00   0.01    -0.00  -0.02   0.01
  87   1    -0.00   0.01   0.01    -0.02   0.01  -0.01     0.01  -0.03   0.01
  88   1    -0.00   0.00   0.01    -0.02   0.03  -0.00     0.01  -0.01   0.01
  89   1     0.02  -0.02   0.01     0.01  -0.00   0.02     0.00   0.01   0.01
  90   1    -0.01   0.00   0.01    -0.01   0.02   0.02    -0.01  -0.02  -0.00
  91   1    -0.01   0.03   0.01    -0.01  -0.02  -0.00    -0.00   0.01  -0.00
  92   1    -0.01   0.02   0.00    -0.00  -0.01  -0.02    -0.01   0.04   0.02
  93   1    -0.00  -0.01  -0.00     0.00   0.02   0.01    -0.01   0.01   0.00
  94   1     0.00  -0.00   0.00     0.01   0.00   0.00    -0.01   0.04   0.01
  95   1    -0.01   0.00  -0.01     0.01   0.01   0.01    -0.03  -0.03  -0.02
  96   1    -0.02   0.01  -0.01     0.01   0.00   0.01    -0.03  -0.01  -0.03
  97   1     0.00   0.02   0.01     0.00   0.00  -0.00    -0.00  -0.02   0.00
  98   1    -0.00   0.01   0.02     0.00   0.00  -0.00    -0.01  -0.01  -0.00
  99   1    -0.01   0.02  -0.03    -0.05   0.01  -0.03     0.02  -0.02   0.02
 100   1    -0.01   0.02  -0.01    -0.03   0.04  -0.01     0.01  -0.03   0.01
 101   1     0.00   0.01  -0.00    -0.04   0.00  -0.01     0.02  -0.02   0.04
 102   1     0.00   0.02   0.00    -0.02   0.01  -0.01     0.01  -0.03   0.03
 103   1    -0.00   0.02   0.00    -0.03  -0.02   0.00     0.01   0.02   0.00
 104   1     0.01  -0.01  -0.02     0.00  -0.01  -0.02     0.01   0.02   0.00
 105   1     0.00   0.02  -0.00    -0.03  -0.04   0.03     0.02   0.02  -0.01
 106   1     0.00   0.01  -0.00    -0.03  -0.02   0.05     0.03   0.01  -0.01
 107   1    -0.01   0.01   0.04    -0.01  -0.02   0.03    -0.01   0.00   0.01
 108   1    -0.01   0.03   0.03    -0.02  -0.01   0.02    -0.01   0.01   0.00
 109   1     0.07   0.00  -0.01     0.04  -0.00  -0.01    -0.01   0.00   0.01
 110   1     0.05  -0.02  -0.01     0.03  -0.02  -0.01    -0.00   0.01   0.02
 111   1     0.00  -0.00  -0.00     0.01   0.01   0.01     0.02   0.02  -0.00
 112   1    -0.00   0.00  -0.00     0.02  -0.00   0.02     0.03   0.01  -0.01
 113   1     0.00  -0.01  -0.01    -0.03   0.01  -0.01    -0.01  -0.01   0.02
 114   1    -0.00  -0.01  -0.00    -0.02   0.03   0.00    -0.00  -0.01   0.01
 115   1    -0.00   0.00   0.01    -0.00   0.02   0.01     0.00   0.00   0.00
 116   1     0.01  -0.00   0.02     0.01   0.01   0.01     0.01  -0.00  -0.00
 117   1     0.00  -0.00   0.01     0.02  -0.00  -0.02    -0.05   0.02   0.04
 118   1    -0.00   0.00   0.01     0.01  -0.02  -0.01    -0.03   0.05   0.03
 119   1     0.00   0.02  -0.02     0.02   0.01  -0.01     0.02   0.04  -0.00
 120   1     0.01   0.01  -0.03     0.03  -0.00  -0.01     0.03   0.02  -0.02
 121   1     0.00   0.03  -0.00     0.01  -0.01   0.01    -0.01  -0.02  -0.02
 122   1    -0.00   0.02  -0.02     0.00   0.02  -0.00    -0.01  -0.04  -0.01
 123   1     0.00   0.03  -0.01    -0.00  -0.03   0.02    -0.00  -0.01   0.00
 124   1    -0.00   0.03  -0.02    -0.01  -0.02   0.04     0.01  -0.01   0.01
 125   1    -0.01   0.01   0.02     0.00  -0.00  -0.00    -0.03   0.01  -0.03
 126   1    -0.00   0.03   0.02    -0.00  -0.01  -0.00    -0.02  -0.01  -0.02
 127   6     0.05  -0.17  -0.01    -0.00   0.09  -0.04    -0.02   0.10  -0.09
 128   6    -0.01  -0.15  -0.04     0.07   0.06  -0.03     0.01   0.08  -0.10
 129   6    -0.05  -0.15  -0.04     0.10   0.07  -0.05     0.05   0.09  -0.11
 130   6    -0.03  -0.17  -0.03     0.08   0.12  -0.07     0.06   0.12  -0.11
 131   6    -0.06  -0.16  -0.05     0.12   0.12  -0.06     0.11   0.12  -0.09
 132   6    -0.05  -0.11  -0.06     0.10   0.06  -0.05     0.04   0.02  -0.04
 133   7    -0.04  -0.11  -0.05     0.08   0.01  -0.06     0.02  -0.04  -0.02
 134   7    -0.06  -0.12  -0.07     0.10  -0.02  -0.06     0.06  -0.08   0.01
 135   7    -0.05  -0.12  -0.06     0.06  -0.04  -0.07     0.02  -0.11   0.01
 136   6    -0.03  -0.11  -0.03     0.02  -0.02  -0.07    -0.04  -0.08   0.00
 137   6    -0.02  -0.10  -0.02     0.00  -0.03  -0.06    -0.05  -0.09  -0.00
 138   6    -0.01  -0.10  -0.02     0.02  -0.04  -0.06    -0.06  -0.08  -0.01
 139   6     0.01  -0.09  -0.01     0.05  -0.03  -0.04    -0.01  -0.05  -0.01
 140   6     0.02  -0.08  -0.00     0.03  -0.02  -0.03     0.01  -0.05  -0.01
 141   7    -0.01  -0.11  -0.02    -0.00  -0.03  -0.06    -0.02  -0.09  -0.01
 142   7    -0.02  -0.11  -0.02     0.03   0.01  -0.07    -0.05  -0.04  -0.02
 143   6     0.02  -0.19  -0.01     0.01   0.15  -0.08     0.02   0.15  -0.10
 144   6     0.07  -0.19   0.00    -0.03   0.14  -0.07    -0.02   0.14  -0.09
 145   1     0.02  -0.05  -0.00    -0.01   0.02  -0.01    -0.01   0.03  -0.02
 146   1    -0.01  -0.04  -0.02     0.03   0.01  -0.00     0.00   0.02  -0.03
 147   1    -0.02  -0.04  -0.01     0.05   0.01  -0.01     0.02   0.02  -0.03
 148   1    -0.03  -0.05  -0.02     0.05   0.03  -0.01     0.06   0.03  -0.01
 149   1    -0.02  -0.05  -0.01     0.04   0.04  -0.02     0.03   0.05  -0.04
 150   1    -0.01  -0.03  -0.01     0.02   0.02  -0.02    -0.01   0.01  -0.02
 151   1    -0.02  -0.03  -0.03     0.04   0.01  -0.01     0.03  -0.00   0.00
 152   1    -0.01  -0.03  -0.01     0.01  -0.01  -0.02    -0.03  -0.02  -0.00
 153   1    -0.00   0.01  -0.01    -0.01   0.05   0.04     0.00  -0.02   0.02
 154   1     0.01  -0.02   0.00     0.01  -0.00  -0.01     0.01  -0.02  -0.00
 155   1    -0.00  -0.03  -0.00    -0.00  -0.01  -0.02     0.00  -0.02  -0.00
 156   1     0.01  -0.06   0.00    -0.01   0.05  -0.03     0.01   0.05  -0.03
 157   1     0.03  -0.06   0.01    -0.02   0.05  -0.02    -0.01   0.04  -0.02
                      7                      8                      9
                        a                      a                      a 
 Frequencies --    47.4098                53.4356                56.1128
 Red. masses --    12.8113                12.8586                12.9336
 Frc consts  --     0.0000                 0.0000                 0.0000
 IR Inten    --     3.5174                15.0771                17.7263
 Raman Activ --     0.0000                 0.0000                 0.0000
 Depolar     --     0.0000                 0.0000                 0.0000
 Atom AN      X      Y      Z        X      Y      Z        X      Y      Z
   1   7     0.02  -0.02  -0.03     0.08   0.03  -0.05     0.01  -0.01  -0.02
   2   6     0.00  -0.01   0.00     0.01   0.03   0.01     0.01  -0.00  -0.01
   3   6     0.01  -0.04  -0.05     0.01  -0.01   0.06     0.01   0.02   0.03
   4   7     0.02  -0.05  -0.06     0.06  -0.00   0.12     0.01  -0.01  -0.03
   5   6     0.02  -0.03  -0.03     0.10   0.01   0.03     0.01  -0.01  -0.03
   6   7    -0.07  -0.04   0.06     0.01   0.01   0.05     0.07  -0.01  -0.02
   7   6    -0.09  -0.07   0.02     0.00  -0.01   0.07     0.07  -0.03   0.07
   8   7    -0.04  -0.06  -0.08     0.00  -0.01   0.06     0.04  -0.02   0.12
   9   8     0.04  -0.03  -0.02     0.17   0.01   0.04     0.01  -0.02  -0.05
  10   8    -0.17  -0.13   0.08    -0.01  -0.04   0.11     0.12  -0.06   0.12
  11   7     0.04  -0.04  -0.02     0.05  -0.01   0.09     0.01  -0.03  -0.02
  12   6    -0.01  -0.07  -0.03     0.02  -0.04  -0.01     0.03  -0.01   0.03
  13   6     0.04  -0.06   0.01    -0.05  -0.01  -0.06     0.01  -0.05   0.02
  14   7     0.09  -0.04   0.02    -0.11  -0.00  -0.03     0.06  -0.05   0.02
  15   6     0.08  -0.03   0.00    -0.05  -0.00   0.06     0.01  -0.06  -0.04
  16   7    -0.04  -0.05  -0.09    -0.02  -0.01  -0.02     0.04  -0.02   0.10
  17   6    -0.00  -0.04  -0.07    -0.09   0.02  -0.06    -0.05  -0.02   0.05
  18   7     0.04  -0.05  -0.02    -0.09  -0.00  -0.07    -0.06  -0.04   0.02
  19   8     0.12  -0.02   0.01    -0.08   0.00   0.12    -0.04  -0.11  -0.13
  20   8    -0.01  -0.03  -0.12    -0.17   0.05  -0.11    -0.12   0.00   0.06
  21   7     0.04   0.03  -0.04    -0.04  -0.01   0.00    -0.03  -0.02   0.00
  22   6     0.01   0.01  -0.01    -0.02  -0.01  -0.00    -0.04  -0.01  -0.00
  23   6    -0.07   0.00  -0.03    -0.02  -0.00  -0.00    -0.05  -0.00  -0.00
  24   7    -0.08   0.01  -0.09    -0.01  -0.02   0.01    -0.03  -0.01  -0.00
  25   6     0.01   0.01  -0.08    -0.03  -0.01   0.01    -0.04  -0.01   0.00
  26   7     0.05   0.03  -0.02    -0.01  -0.01  -0.01    -0.05  -0.02  -0.02
  27   6    -0.00   0.02  -0.05    -0.04  -0.02  -0.02    -0.06  -0.02  -0.03
  28   7    -0.09   0.00  -0.07    -0.05  -0.01  -0.02    -0.08  -0.01  -0.03
  29   8     0.05   0.01  -0.13    -0.04  -0.01   0.01    -0.05  -0.01  -0.00
  30   8     0.03   0.04  -0.07    -0.07  -0.03  -0.04    -0.09  -0.03  -0.05
  31   7    -0.03  -0.00   0.03     0.05  -0.02   0.01    -0.00  -0.00   0.06
  32   6    -0.03  -0.03   0.06     0.02  -0.03  -0.00    -0.00   0.01   0.05
  33   6    -0.02   0.01   0.05     0.05  -0.02  -0.04     0.03   0.03   0.01
  34   7    -0.03   0.02   0.05     0.08  -0.01  -0.04     0.03   0.02   0.02
  35   6    -0.04   0.01   0.03     0.07  -0.02  -0.02     0.03   0.02   0.03
  36   7    -0.03  -0.03   0.13     0.02  -0.03   0.04     0.03  -0.01   0.07
  37   6     0.01  -0.01   0.11     0.05  -0.02   0.02     0.08  -0.01   0.02
  38   7     0.02   0.01   0.05     0.07  -0.02  -0.04     0.08   0.02  -0.01
  39   8    -0.05   0.03   0.02     0.11  -0.01  -0.02     0.06   0.05   0.01
  40   8     0.03  -0.01   0.19     0.07  -0.03   0.05     0.13  -0.03  -0.00
  41   7     0.11   0.02   0.03    -0.08   0.04  -0.03     0.03  -0.05   0.03
  42   6     0.07   0.03   0.01    -0.03   0.04  -0.01    -0.00  -0.05   0.02
  43   6     0.05   0.06   0.01     0.03   0.03  -0.01     0.03  -0.04   0.02
  44   7     0.03   0.06   0.04     0.08   0.04  -0.03     0.01  -0.04   0.03
  45   6     0.06   0.04   0.05    -0.02   0.04  -0.03     0.03  -0.04   0.03
  46   7     0.05   0.04  -0.01    -0.05   0.02  -0.07    -0.06  -0.03   0.01
  47   6     0.01   0.09   0.01    -0.04   0.07  -0.12    -0.02  -0.01  -0.02
  48   7     0.06   0.06   0.03     0.02   0.08  -0.03     0.07  -0.05  -0.01
  49   8     0.07   0.04   0.08    -0.05   0.04  -0.05     0.04  -0.05   0.05
  50   8    -0.02   0.11   0.01    -0.09   0.12  -0.20    -0.03  -0.02   0.01
  51   6    -0.08  -0.03  -0.11     0.03  -0.02   0.02    -0.03  -0.00   0.00
  52   6    -0.04  -0.07  -0.10     0.01  -0.00   0.02     0.05   0.01   0.13
  53   6    -0.12   0.00  -0.08    -0.04  -0.01  -0.02    -0.03   0.02  -0.02
  54   6     0.02  -0.05  -0.03     0.07  -0.05   0.13     0.01   0.00  -0.04
  55   7     0.01   0.03  -0.01     0.08   0.06  -0.06     0.00   0.00  -0.01
  56   6    -0.02   0.05  -0.01     0.06   0.05  -0.01     0.05  -0.02  -0.03
  57   6     0.02   0.05  -0.04     0.04   0.03   0.00     0.03  -0.02  -0.01
  58   7     0.04   0.05  -0.04    -0.02   0.04   0.01    -0.01  -0.01   0.01
  59   6     0.03   0.04  -0.01    -0.00   0.05  -0.03    -0.02   0.00   0.01
  60   7    -0.05   0.01   0.05     0.05   0.05   0.00     0.10   0.02  -0.07
  61   6    -0.00   0.01   0.04     0.07   0.06  -0.01     0.08   0.04  -0.07
  62   7     0.05   0.05  -0.02     0.07   0.05  -0.01     0.04   0.00  -0.03
  63   8     0.04   0.04   0.00    -0.05   0.08  -0.04    -0.06   0.01   0.02
  64   8    -0.01  -0.01   0.08     0.11   0.09  -0.02     0.13   0.09  -0.13
  65   6     0.02   0.01  -0.01     0.09   0.07  -0.07     0.01  -0.00  -0.01
  66   6    -0.09   0.01   0.08     0.01   0.03   0.02     0.08  -0.01  -0.08
  67   6     0.07   0.02  -0.02     0.04   0.01   0.02     0.00  -0.01  -0.01
  68   6     0.06   0.06  -0.04    -0.04   0.00  -0.00    -0.03  -0.02   0.01
  69   6     0.11  -0.03   0.04    -0.12   0.05  -0.02     0.06  -0.06   0.02
  70   6     0.04  -0.01  -0.03    -0.08  -0.01  -0.06    -0.08  -0.07   0.01
  71   6    -0.03   0.06   0.04     0.08  -0.00  -0.05     0.03  -0.01   0.04
  72   6     0.05   0.03   0.04     0.05   0.01   0.00     0.10   0.01  -0.04
  73   7    -0.05  -0.07   0.03     0.02  -0.05   0.06     0.04   0.01   0.14
  74   6    -0.02  -0.06  -0.02     0.04  -0.04   0.05     0.02  -0.00   0.06
  75   6    -0.05  -0.04  -0.09     0.02  -0.03   0.03     0.01   0.01   0.02
  76   7    -0.11  -0.04  -0.10    -0.02  -0.04   0.00    -0.01   0.02   0.05
  77   6    -0.10  -0.06  -0.03    -0.02  -0.05   0.02     0.01   0.03   0.13
  78   7    -0.04  -0.07  -0.00     0.04  -0.05   0.06    -0.00   0.03   0.04
  79   6    -0.07  -0.05  -0.04     0.04  -0.05   0.05    -0.03   0.05   0.00
  80   7    -0.08  -0.04  -0.09     0.03  -0.04   0.05    -0.02   0.03   0.01
  81   8    -0.16  -0.07  -0.03    -0.06  -0.07  -0.01     0.03   0.05   0.23
  82   8    -0.09  -0.07  -0.03     0.04  -0.06   0.06    -0.07   0.09  -0.04
  83   6    -0.01  -0.08   0.09     0.01  -0.06   0.06     0.01  -0.03   0.11
  84   6    -0.04  -0.03   0.01     0.03  -0.03   0.03     0.01   0.01   0.06
  85   1     0.01   0.01   0.01    -0.01   0.02  -0.00    -0.00  -0.01  -0.01
  86   1     0.01  -0.02  -0.02    -0.01  -0.01   0.02    -0.01   0.02   0.01
  87   1    -0.01  -0.03  -0.00     0.02  -0.03  -0.01     0.01   0.01   0.01
  88   1     0.01  -0.03   0.01    -0.01  -0.00  -0.04     0.01  -0.03   0.00
  89   1     0.01   0.00   0.02    -0.01  -0.01  -0.00    -0.01  -0.00   0.00
  90   1    -0.03  -0.00   0.00    -0.01   0.00   0.00    -0.02   0.01   0.00
  91   1    -0.02  -0.02   0.01    -0.00  -0.01  -0.00    -0.01   0.00   0.01
  92   1    -0.01   0.01   0.01     0.01  -0.00  -0.02     0.00   0.02  -0.00
  93   1     0.02  -0.00  -0.00    -0.01   0.02   0.01    -0.00  -0.03   0.01
  94   1     0.01   0.02  -0.00     0.01   0.00   0.00     0.01  -0.00   0.01
  95   1    -0.02  -0.02  -0.03     0.01  -0.00   0.00    -0.01  -0.00  -0.00
  96   1    -0.03  -0.00  -0.04     0.01  -0.01   0.01    -0.02   0.00   0.00
  97   1    -0.01  -0.03  -0.03     0.01   0.00   0.00     0.02   0.02   0.03
  98   1    -0.02  -0.02  -0.04    -0.00  -0.00   0.01     0.02  -0.00   0.06
  99   1    -0.05  -0.00  -0.03    -0.02  -0.00  -0.01    -0.01   0.00  -0.01
 100   1    -0.04   0.01  -0.02    -0.01   0.01  -0.01    -0.00   0.01  -0.01
 101   1     0.01  -0.01  -0.01     0.03  -0.01   0.06    -0.00  -0.00  -0.02
 102   1     0.00  -0.02  -0.01     0.02  -0.04   0.03     0.00   0.01  -0.01
 103   1    -0.02   0.02  -0.01     0.02   0.02   0.00     0.02  -0.02  -0.01
 104   1     0.00   0.02  -0.02     0.01  -0.01   0.00     0.01  -0.01   0.00
 105   1     0.01   0.00  -0.00     0.02   0.03  -0.02     0.00  -0.00  -0.00
 106   1     0.01   0.00  -0.00     0.03   0.02  -0.03     0.00  -0.00  -0.00
 107   1    -0.04  -0.00   0.04     0.00   0.01   0.01     0.03   0.00  -0.03
 108   1    -0.03   0.03   0.02    -0.00   0.01   0.00     0.02  -0.02  -0.03
 109   1     0.03   0.01  -0.00     0.01   0.00   0.01     0.00  -0.00  -0.00
 110   1     0.02  -0.00  -0.01     0.01  -0.00   0.01     0.00  -0.01   0.01
 111   1     0.02   0.03  -0.01    -0.01  -0.01   0.00    -0.01  -0.01   0.00
 112   1     0.03   0.01  -0.02    -0.02   0.00  -0.00    -0.01  -0.01   0.00
 113   1     0.04  -0.01   0.02    -0.06   0.01  -0.00     0.03  -0.02   0.01
 114   1     0.03  -0.02   0.01    -0.03   0.03  -0.00     0.02  -0.03   0.00
 115   1     0.01  -0.01  -0.01    -0.02  -0.01  -0.01    -0.02  -0.04   0.00
 116   1     0.01  -0.00  -0.02    -0.03  -0.00  -0.02    -0.04  -0.02   0.00
 117   1    -0.02   0.02   0.01     0.03   0.00  -0.03     0.01  -0.00   0.02
 118   1    -0.01   0.03   0.01     0.02  -0.01  -0.01     0.01  -0.00   0.01
 119   1     0.01   0.01   0.01     0.02   0.00   0.01     0.03   0.02  -0.01
 120   1     0.02   0.01   0.02     0.02   0.00   0.01     0.04  -0.00  -0.02
 121   1     0.01  -0.02  -0.01     0.02  -0.01   0.01     0.01  -0.01   0.01
 122   1    -0.00  -0.01  -0.04     0.01   0.00   0.00     0.01  -0.00  -0.00
 123   1     0.01  -0.04   0.02    -0.00  -0.02   0.01    -0.01  -0.02   0.03
 124   1     0.00  -0.03   0.04     0.01  -0.02   0.03     0.00  -0.01   0.05
 125   1    -0.02  -0.01   0.00     0.01  -0.01   0.01     0.00   0.00   0.02
 126   1    -0.01  -0.01   0.00     0.00  -0.01   0.01     0.01   0.01   0.02
 127   6     0.03  -0.04   0.05     0.05   0.02  -0.10    -0.03   0.06  -0.00
 128   6    -0.03  -0.01   0.03     0.09   0.04  -0.01    -0.08   0.09   0.00
 129   6    -0.06  -0.02   0.04     0.05   0.02   0.03    -0.14   0.08   0.02
 130   6    -0.02  -0.06   0.08    -0.02  -0.03  -0.01    -0.12   0.02   0.04
 131   6    -0.06  -0.05   0.06    -0.05  -0.06   0.04    -0.13   0.01   0.06
 132   6     0.00   0.03   0.03    -0.12  -0.13   0.08     0.02   0.06  -0.04
 133   7     0.02   0.07   0.01    -0.10  -0.09   0.11    -0.00   0.07  -0.15
 134   7    -0.00   0.10  -0.01    -0.07  -0.02   0.19    -0.06   0.06  -0.23
 135   7     0.02   0.11  -0.01    -0.03   0.03   0.15    -0.08   0.05  -0.24
 136   6     0.06   0.09   0.01    -0.04  -0.02   0.04    -0.02   0.06  -0.16
 137   6     0.06   0.09   0.01    -0.02   0.02  -0.03    -0.02   0.04  -0.11
 138   6     0.06   0.09   0.01     0.02   0.08  -0.02     0.02  -0.01  -0.10
 139   6     0.05   0.09   0.01     0.01   0.09  -0.06     0.03  -0.03  -0.05
 140   6     0.03   0.08   0.00    -0.05   0.00  -0.11    -0.06   0.02  -0.01
 141   7     0.07   0.10   0.01    -0.07  -0.03  -0.09    -0.04   0.07  -0.06
 142   7     0.07   0.08   0.02    -0.08  -0.09   0.02     0.02   0.07  -0.12
 143   6     0.05  -0.08   0.10    -0.05  -0.05  -0.10    -0.05  -0.01   0.03
 144   6     0.07  -0.07   0.08    -0.02  -0.02  -0.14    -0.02   0.01   0.01
 145   1     0.01  -0.01   0.01     0.02   0.01  -0.04     0.00   0.02  -0.00
 146   1    -0.02   0.00   0.00     0.04   0.02   0.01    -0.02   0.04   0.00
 147   1    -0.03   0.00   0.01     0.02   0.01   0.03    -0.05   0.03   0.00
 148   1    -0.04  -0.01   0.01    -0.00  -0.01   0.03    -0.08   0.01   0.01
 149   1    -0.02  -0.03   0.03    -0.02  -0.02  -0.00    -0.03  -0.02   0.06
 150   1     0.02   0.01   0.02    -0.04  -0.05   0.01     0.04   0.02   0.01
 151   1    -0.01   0.02  -0.01    -0.04  -0.04   0.05     0.01   0.02  -0.03
 152   1     0.01   0.03   0.00     0.01   0.03   0.01     0.01  -0.01  -0.03
 153   1     0.03  -0.04   0.01    -0.02   0.06   0.02    -0.02   0.03  -0.10
 154   1     0.00   0.02  -0.00    -0.01  -0.00  -0.04    -0.03   0.01   0.00
 155   1     0.02   0.03   0.00    -0.03  -0.02  -0.02    -0.01   0.03  -0.02
 156   1     0.03  -0.03   0.04    -0.03  -0.02  -0.04    -0.01  -0.01   0.02
 157   1     0.03  -0.03   0.03    -0.01  -0.01  -0.06     0.01  -0.00  -0.00
                     10                     11                     12
                        a                      a                      a 
 Frequencies --    61.4148                61.9345                65.6360
 Red. masses --    12.7712                12.8882                 9.2531
 Frc consts  --     0.0000                 0.0000                 0.0000
 IR Inten    --    20.4040                13.5786               385.5135
 Raman Activ --     0.0000                 0.0000                 0.0000
 Depolar     --     0.0000                 0.0000                 0.0000
 Atom AN      X      Y      Z        X      Y      Z        X      Y      Z
   1   7     0.02  -0.08  -0.02     0.02   0.02  -0.15     0.04   0.04  -0.05
   2   6     0.02  -0.06   0.00     0.01   0.04  -0.06    -0.00   0.04  -0.03
   3   6     0.02  -0.06   0.01     0.01   0.03  -0.09    -0.01   0.01   0.00
   4   7     0.02  -0.08  -0.01     0.02   0.01  -0.13     0.03   0.03   0.06
   5   6     0.03  -0.09  -0.06     0.02   0.02  -0.10     0.05   0.03   0.02
   6   7     0.01  -0.08   0.02    -0.03  -0.02   0.03    -0.01   0.04  -0.03
   7   6     0.01  -0.10   0.05    -0.05  -0.07   0.06    -0.01   0.05  -0.05
   8   7     0.01  -0.08   0.02    -0.01   0.00  -0.07    -0.01   0.03  -0.03
   9   8     0.04  -0.14  -0.16     0.03   0.04  -0.07     0.09   0.05   0.04
  10   8     0.00  -0.15   0.10    -0.12  -0.19   0.21    -0.01   0.09  -0.09
  11   7     0.04  -0.01   0.05     0.05   0.01  -0.05     0.02  -0.04   0.04
  12   6     0.03  -0.01   0.02     0.02  -0.00  -0.02     0.02  -0.04   0.03
  13   6     0.02   0.01   0.01     0.06  -0.01   0.02     0.00  -0.04   0.01
  14   7    -0.00   0.00   0.02     0.11  -0.01   0.01    -0.01  -0.04   0.02
  15   6    -0.01  -0.02   0.02     0.08  -0.00  -0.04    -0.01  -0.04   0.02
  16   7     0.02  -0.01   0.00    -0.00   0.01  -0.05     0.01  -0.04   0.03
  17   6     0.04  -0.00   0.01     0.04  -0.00  -0.02    -0.02  -0.03   0.01
  18   7     0.04   0.00   0.02     0.08  -0.02   0.02    -0.01  -0.04   0.01
  19   8    -0.07  -0.04   0.01     0.10  -0.01  -0.09    -0.04  -0.06   0.01
  20   8     0.05  -0.01   0.00     0.06  -0.00  -0.03    -0.05  -0.02  -0.00
  21   7     0.01   0.08   0.04    -0.09  -0.03   0.02    -0.07  -0.03  -0.00
  22   6     0.04   0.07   0.03    -0.01  -0.03  -0.01    -0.02  -0.04  -0.01
  23   6     0.08   0.07   0.04     0.04   0.00   0.01     0.01  -0.03   0.00
  24   7     0.10   0.07   0.06     0.08  -0.03   0.08     0.00  -0.03   0.03
  25   6    -0.01   0.10   0.04    -0.02  -0.02   0.07    -0.02  -0.03   0.03
  26   7     0.03   0.08   0.05     0.01  -0.02  -0.01     0.00  -0.02   0.01
  27   6     0.01   0.05   0.04     0.01  -0.01  -0.01     0.04  -0.01   0.03
  28   7     0.05   0.06   0.05     0.01  -0.01  -0.00     0.03  -0.02   0.02
  29   8    -0.11   0.15   0.03    -0.06  -0.03   0.11    -0.01  -0.05   0.06
  30   8    -0.04   0.03   0.04     0.01  -0.02  -0.01     0.10   0.02   0.06
  31   7     0.04   0.01  -0.13     0.02   0.01  -0.07     0.04   0.08  -0.04
  32   6     0.04  -0.05  -0.05     0.02  -0.02  -0.03     0.01   0.03  -0.00
  33   6     0.01  -0.03   0.00     0.00  -0.02   0.01     0.01   0.03   0.00
  34   7    -0.02   0.00  -0.02    -0.02  -0.01   0.00     0.02   0.06  -0.01
  35   6    -0.01   0.02  -0.09    -0.01   0.00  -0.04     0.05   0.09  -0.04
  36   7     0.01  -0.04   0.01     0.00  -0.01  -0.01    -0.02   0.05   0.06
  37   6    -0.02  -0.01   0.08    -0.03   0.00   0.03    -0.03   0.07   0.10
  38   7    -0.00  -0.02   0.04    -0.02  -0.02   0.02    -0.00   0.05   0.02
  39   8    -0.03   0.06  -0.15    -0.03   0.01  -0.06     0.08   0.16  -0.10
  40   8    -0.06   0.02   0.18    -0.06   0.02   0.08    -0.08   0.12   0.22
  41   7    -0.04   0.05   0.02     0.07  -0.02   0.01    -0.03  -0.02   0.02
  42   6    -0.02   0.05   0.02     0.05  -0.01  -0.01    -0.02  -0.01   0.02
  43   6    -0.03   0.04   0.02     0.01  -0.00  -0.01    -0.01  -0.01   0.02
  44   7    -0.07   0.04   0.02    -0.02  -0.00   0.01    -0.04  -0.01   0.02
  45   6    -0.06   0.04   0.01     0.00  -0.01   0.01    -0.02  -0.01   0.02
  46   7    -0.01   0.05   0.02     0.07  -0.01   0.02    -0.03  -0.02   0.01
  47   6    -0.04   0.03   0.06     0.09  -0.04   0.02     0.00  -0.04  -0.00
  48   7    -0.02   0.01   0.05     0.00  -0.00   0.01     0.02  -0.05   0.01
  49   8    -0.09   0.05   0.01    -0.03  -0.01   0.03    -0.01  -0.02   0.04
  50   8    -0.10   0.03   0.11     0.24  -0.07   0.01     0.02  -0.06   0.02
  51   6     0.12   0.06   0.06     0.10   0.01   0.10     0.03  -0.02   0.04
  52   6     0.03  -0.04   0.01    -0.01   0.00  -0.06    -0.03  -0.01  -0.00
  53   6     0.03   0.04   0.04     0.01   0.00  -0.00     0.00  -0.03   0.01
  54   6     0.01  -0.05   0.03     0.01   0.02  -0.08     0.04  -0.02   0.06
  55   7     0.01  -0.02   0.04    -0.04   0.04  -0.04     0.05   0.00  -0.08
  56   6     0.01  -0.01   0.02    -0.03   0.02   0.01     0.01   0.02  -0.01
  57   6     0.01   0.01   0.03    -0.05  -0.02   0.01    -0.02  -0.01   0.01
  58   7     0.04  -0.00   0.02    -0.15   0.00   0.04    -0.05  -0.01  -0.01
  59   6     0.04  -0.02   0.03    -0.12   0.03  -0.01    -0.01  -0.00  -0.06
  60   7     0.02  -0.01   0.00    -0.03   0.02   0.04    -0.04  -0.02   0.02
  61   6    -0.02  -0.01   0.01     0.03   0.04   0.01    -0.06  -0.05   0.03
  62   7    -0.03  -0.01   0.04     0.02   0.02  -0.00    -0.04  -0.02   0.02
  63   8     0.07  -0.03   0.03    -0.20   0.05  -0.02    -0.02  -0.00  -0.10
  64   8    -0.05  -0.02  -0.00     0.09   0.09   0.01    -0.13  -0.11   0.07
  65   6     0.04  -0.04   0.02     0.02   0.04  -0.09     0.04   0.05  -0.08
  66   6     0.00  -0.04  -0.00    -0.05   0.02   0.05    -0.01   0.01   0.02
  67   6    -0.02   0.05   0.01     0.03  -0.01   0.00    -0.02  -0.02   0.01
  68   6     0.02   0.03   0.05    -0.15  -0.04   0.01    -0.08  -0.04  -0.00
  69   6    -0.03   0.04   0.02     0.11  -0.04  -0.00    -0.02  -0.02   0.02
  70   6     0.01   0.02  -0.00     0.08   0.00   0.01    -0.02  -0.03   0.00
  71   6    -0.04   0.03   0.01    -0.03   0.00   0.01     0.01   0.01   0.02
  72   6    -0.01  -0.01   0.05    -0.02  -0.02   0.01     0.02   0.02  -0.02
  73   7     0.02  -0.01   0.01     0.01   0.01  -0.01    -0.03  -0.03  -0.07
  74   6     0.01  -0.01  -0.03    -0.00   0.01  -0.01    -0.00  -0.01   0.00
  75   6     0.04   0.02   0.03     0.02   0.01   0.04     0.01  -0.02   0.02
  76   7     0.03   0.03   0.03     0.02   0.00   0.01    -0.00  -0.04  -0.02
  77   6     0.02   0.01   0.03     0.00  -0.00  -0.02    -0.04  -0.05  -0.11
  78   7     0.04   0.03  -0.11     0.03   0.03  -0.07     0.02  -0.04   0.03
  79   6     0.09   0.04  -0.07     0.07   0.02  -0.02     0.02  -0.04   0.03
  80   7     0.11   0.02   0.04     0.09  -0.01   0.08     0.03  -0.05   0.06
  81   8     0.02   0.02   0.06    -0.01  -0.01  -0.07    -0.10  -0.10  -0.26
  82   8     0.14   0.07  -0.13     0.10   0.04  -0.06     0.03  -0.04   0.03
  83   6     0.01  -0.03   0.02     0.00   0.01  -0.02     0.02   0.02  -0.01
  84   6     0.04  -0.01  -0.17     0.03   0.00  -0.10    -0.01   0.02  -0.02
  85   1     0.00  -0.01   0.00     0.01   0.03  -0.01    -0.01   0.02  -0.01
  86   1     0.00  -0.01   0.00     0.01   0.01  -0.03    -0.01  -0.01   0.00
  87   1     0.01  -0.01   0.01    -0.01  -0.00   0.00     0.01  -0.01   0.01
  88   1     0.01   0.01   0.00     0.02  -0.01   0.02     0.00  -0.01   0.00
  89   1     0.01   0.02  -0.00    -0.01  -0.02  -0.02    -0.01  -0.02  -0.01
  90   1     0.03   0.03   0.01     0.02   0.01  -0.00     0.01  -0.01  -0.00
  91   1     0.02  -0.03  -0.02     0.01  -0.01  -0.01     0.00  -0.00  -0.00
  92   1     0.01  -0.02   0.01     0.01  -0.01   0.01     0.00   0.01   0.00
  93   1    -0.00   0.02   0.01     0.02  -0.01  -0.01    -0.01  -0.00   0.01
  94   1    -0.01   0.02   0.01     0.00   0.01  -0.01     0.00   0.01   0.01
  95   1     0.03   0.03   0.02     0.03   0.02   0.03     0.01   0.00   0.01
  96   1     0.05   0.01   0.02     0.04  -0.01   0.04     0.01  -0.01   0.02
  97   1     0.01  -0.01   0.00    -0.00  -0.00  -0.02    -0.01  -0.01   0.00
  98   1     0.02  -0.01  -0.00    -0.00   0.00  -0.02    -0.01  -0.00  -0.00
  99   1     0.00   0.01   0.02     0.00   0.00  -0.00     0.00  -0.01   0.00
 100   1     0.01   0.01   0.01     0.00   0.00  -0.00    -0.00  -0.01   0.01
 101   1    -0.00  -0.01   0.01     0.00   0.01  -0.03     0.02  -0.01   0.02
 102   1    -0.00  -0.02   0.01    -0.00   0.01  -0.02     0.01  -0.02   0.01
 103   1     0.01  -0.01   0.01    -0.01   0.01   0.01     0.01   0.02   0.01
 104   1     0.00   0.01   0.01    -0.01  -0.03   0.00    -0.01  -0.01   0.01
 105   1     0.01  -0.01   0.01     0.02   0.02  -0.02     0.01   0.03  -0.02
 106   1     0.02  -0.01   0.01     0.01   0.01  -0.03     0.01   0.01  -0.04
 107   1    -0.00  -0.01  -0.01    -0.02  -0.00   0.02    -0.00   0.00   0.01
 108   1    -0.00  -0.01  -0.00    -0.02   0.02   0.02     0.00   0.01   0.01
 109   1    -0.02   0.01  -0.00     0.02  -0.00   0.00    -0.01  -0.01   0.00
 110   1    -0.01   0.02  -0.00     0.01  -0.01   0.00    -0.01  -0.00  -0.00
 111   1     0.01   0.01   0.01    -0.04  -0.03  -0.01    -0.02  -0.02  -0.00
 112   1     0.01   0.01   0.02    -0.06  -0.01   0.00    -0.03  -0.01  -0.00
 113   1    -0.02   0.01   0.01     0.05  -0.01   0.00    -0.01  -0.01   0.01
 114   1    -0.01   0.02   0.00     0.03  -0.02  -0.01    -0.00   0.00   0.00
 115   1     0.00   0.01  -0.00     0.02   0.01   0.00    -0.01  -0.01  -0.00
 116   1     0.00   0.01  -0.01     0.03   0.00   0.00    -0.01  -0.01  -0.00
 117   1    -0.02   0.01  -0.00    -0.02   0.00   0.01     0.01   0.00   0.01
 118   1    -0.01   0.01   0.01    -0.01   0.01   0.00     0.01  -0.00   0.01
 119   1    -0.00  -0.01   0.02    -0.01  -0.01   0.00     0.01   0.02  -0.01
 120   1    -0.00  -0.00   0.02    -0.01  -0.00   0.01     0.01   0.00  -0.02
 121   1    -0.01  -0.02  -0.01    -0.01  -0.00  -0.01    -0.01   0.01   0.00
 122   1     0.00   0.01   0.02     0.00   0.01   0.02    -0.00   0.00   0.01
 123   1     0.00  -0.02   0.00     0.00   0.00  -0.00     0.02   0.01  -0.00
 124   1    -0.00  -0.01   0.01    -0.00   0.00  -0.01     0.01   0.01  -0.01
 125   1     0.02   0.01  -0.07     0.01   0.01  -0.04    -0.01   0.01  -0.01
 126   1     0.01  -0.03  -0.05     0.00  -0.01  -0.03    -0.01   0.00  -0.01
 127   6     0.01  -0.12  -0.05    -0.06   0.14  -0.03     0.02   0.03   0.04
 128   6    -0.01  -0.13  -0.08    -0.05   0.16   0.02     0.01   0.04   0.03
 129   6    -0.03  -0.11  -0.11    -0.07   0.14   0.06     0.00   0.04   0.04
 130   6    -0.04  -0.10  -0.12    -0.09   0.10   0.05     0.01   0.03   0.04
 131   6    -0.08  -0.07  -0.17    -0.06   0.06   0.11     0.01   0.03   0.05
 132   6    -0.13  -0.00  -0.13    -0.04  -0.06   0.10     0.08   0.05   0.01
 133   7    -0.11   0.04  -0.08    -0.07  -0.08   0.05     0.07   0.04  -0.04
 134   7    -0.10   0.05  -0.06    -0.09  -0.07   0.03     0.04   0.01  -0.09
 135   7    -0.06   0.06  -0.03    -0.09  -0.06   0.02     0.01  -0.00  -0.10
 136   6    -0.04   0.05  -0.02    -0.06  -0.06   0.03     0.01   0.01  -0.06
 137   6    -0.02   0.05   0.01    -0.01  -0.05   0.03    -0.01  -0.01  -0.04
 138   6    -0.03   0.03   0.00    -0.01  -0.04   0.03    -0.02  -0.04  -0.05
 139   6    -0.02   0.02   0.03     0.01  -0.02   0.03     0.00  -0.05  -0.02
 140   6    -0.01   0.06   0.04     0.06  -0.02   0.03    -0.02  -0.01   0.00
 141   7    -0.00   0.07   0.04     0.05  -0.04   0.03    -0.02   0.01  -0.02
 142   7    -0.07   0.04  -0.05    -0.06  -0.08   0.04     0.05   0.04  -0.03
 143   6    -0.03  -0.09  -0.09    -0.10   0.08  -0.00     0.02   0.02   0.05
 144   6     0.01  -0.11  -0.05    -0.08   0.10  -0.04     0.03   0.03   0.04
 145   1     0.01  -0.04  -0.01    -0.01   0.04  -0.01     0.01   0.01   0.01
 146   1    -0.00  -0.04  -0.02    -0.01   0.05   0.01     0.00   0.01   0.01
 147   1    -0.01  -0.03  -0.04    -0.02   0.04   0.03    -0.00   0.01   0.01
 148   1    -0.02  -0.03  -0.05    -0.02   0.03   0.05    -0.01   0.01   0.01
 149   1    -0.02  -0.02  -0.06    -0.02   0.02   0.04     0.01  -0.00   0.03
 150   1    -0.04  -0.00  -0.04    -0.02  -0.03   0.02     0.03   0.02   0.01
 151   1    -0.05   0.00  -0.04    -0.00  -0.03   0.05     0.03   0.01  -0.01
 152   1    -0.02   0.00  -0.01    -0.01  -0.01   0.01    -0.00  -0.01  -0.02
 153   1    -0.03   0.10  -0.06     0.04  -0.10   0.02    -0.13   0.45  -0.38
 154   1    -0.00   0.02   0.02     0.02  -0.01   0.01    -0.01   0.00   0.00
 155   1     0.01   0.03   0.01     0.01  -0.01   0.01     0.00   0.01  -0.01
 156   1    -0.01  -0.02  -0.03    -0.03   0.01  -0.00     0.01   0.01   0.01
 157   1     0.01  -0.03  -0.01    -0.02   0.02  -0.02     0.01   0.01   0.01
                     13                     14                     15
                        a                      a                      a 
 Frequencies --    67.1957                68.4968                72.2925
 Red. masses --     6.6038                12.5880                13.3716
 Frc consts  --     0.0000                 0.0000                 0.0000
 IR Inten    --   546.5969                16.4116                 3.3637
 Raman Activ --     0.0000                 0.0000                 0.0000
 Depolar     --     0.0000                 0.0000                 0.0000
 Atom AN      X      Y      Z        X      Y      Z        X      Y      Z
   1   7    -0.03  -0.03  -0.01     0.03  -0.01  -0.10    -0.06   0.02   0.07
   2   6    -0.01  -0.02  -0.00    -0.01   0.01  -0.05    -0.02   0.00   0.02
   3   6    -0.00  -0.01  -0.04    -0.02  -0.00   0.01    -0.02   0.03   0.00
   4   7    -0.02  -0.02  -0.08     0.02  -0.02  -0.01    -0.04   0.01  -0.08
   5   6    -0.03  -0.02  -0.03     0.04  -0.01  -0.04    -0.07   0.03   0.02
   6   7    -0.02  -0.04   0.02     0.02  -0.02  -0.03     0.01   0.03  -0.02
   7   6    -0.03  -0.06   0.04     0.02  -0.08   0.10     0.00  -0.00   0.04
   8   7    -0.01  -0.03  -0.01    -0.00  -0.04   0.09    -0.01  -0.00   0.07
   9   8    -0.06  -0.01  -0.02     0.08  -0.02  -0.05    -0.11   0.05   0.07
  10   8    -0.06  -0.13   0.12     0.02  -0.19   0.24     0.01  -0.03   0.09
  11   7     0.00   0.04  -0.03     0.06   0.07   0.09    -0.03   0.02  -0.06
  12   6    -0.01   0.03  -0.02     0.02   0.03   0.03    -0.03   0.02  -0.00
  13   6     0.01   0.03  -0.00    -0.01   0.04   0.00    -0.00  -0.02   0.02
  14   7     0.03   0.03  -0.01    -0.03   0.05   0.02     0.10   0.02   0.04
  15   6     0.03   0.04  -0.01     0.02   0.07   0.08     0.07   0.04  -0.02
  16   7    -0.02   0.03  -0.04    -0.02   0.06   0.02    -0.03   0.02   0.02
  17   6     0.02   0.02  -0.02    -0.05   0.07  -0.00    -0.07   0.03  -0.00
  18   7     0.04   0.02   0.01    -0.05   0.05  -0.01    -0.07   0.01  -0.01
  19   8     0.07   0.07   0.00     0.03   0.10   0.13     0.15   0.07  -0.03
  20   8     0.05   0.02  -0.02    -0.10   0.10  -0.02    -0.12   0.05  -0.01
  21   7     0.04   0.01  -0.02    -0.03  -0.02  -0.01     0.07  -0.04   0.02
  22   6     0.01   0.02  -0.01    -0.03   0.00  -0.03    -0.01  -0.00   0.01
  23   6    -0.02   0.01  -0.02    -0.00   0.02  -0.02     0.03  -0.03   0.01
  24   7    -0.01   0.01  -0.04     0.05  -0.02   0.02     0.06  -0.05   0.02
  25   6     0.02   0.01  -0.03     0.05  -0.04   0.03     0.08  -0.05   0.02
  26   7    -0.01   0.01  -0.02    -0.05  -0.01  -0.05    -0.11  -0.05  -0.00
  27   6    -0.03   0.00  -0.03    -0.06  -0.01  -0.06    -0.12  -0.09   0.01
  28   7    -0.03   0.01  -0.02    -0.06   0.00  -0.05     0.01  -0.05   0.03
  29   8     0.05   0.01  -0.05     0.12  -0.08   0.08     0.12  -0.07   0.02
  30   8    -0.06  -0.01  -0.04    -0.10  -0.03  -0.09    -0.27  -0.17  -0.01
  31   7    -0.04  -0.06   0.05    -0.00   0.00  -0.05     0.01   0.11  -0.09
  32   6    -0.01  -0.02   0.01     0.00  -0.00  -0.03     0.01   0.06  -0.03
  33   6    -0.01  -0.03   0.00    -0.00   0.01  -0.02    -0.01   0.07   0.01
  34   7    -0.01  -0.04   0.01    -0.03  -0.00  -0.01    -0.05   0.08   0.01
  35   6    -0.03  -0.07   0.05    -0.05  -0.03  -0.01    -0.02   0.11  -0.06
  36   7     0.01  -0.03  -0.05     0.00  -0.00  -0.02    -0.02   0.07   0.02
  37   6     0.01  -0.05  -0.07     0.01   0.00  -0.03    -0.02   0.08   0.03
  38   7    -0.01  -0.03  -0.00     0.01   0.01  -0.03    -0.01   0.08   0.00
  39   8    -0.06  -0.12   0.09    -0.10  -0.08   0.03    -0.03   0.17  -0.12
  40   8     0.05  -0.08  -0.17     0.02  -0.00  -0.03    -0.04   0.10   0.09
  41   7     0.03   0.01  -0.01    -0.07   0.03   0.00     0.05  -0.03   0.03
  42   6     0.02   0.00  -0.01    -0.04   0.03   0.00     0.01  -0.03  -0.01
  43   6     0.00  -0.01  -0.01    -0.03   0.03  -0.00    -0.02   0.01  -0.00
  44   7     0.01  -0.01  -0.02    -0.05   0.03   0.00    -0.07   0.01   0.03
  45   6     0.03  -0.00  -0.02    -0.04   0.03  -0.00     0.01  -0.01   0.04
  46   7     0.03   0.00   0.00    -0.02   0.01  -0.01    -0.01  -0.03  -0.02
  47   6     0.00   0.00   0.02     0.01  -0.02  -0.03    -0.05  -0.01  -0.02
  48   7    -0.02   0.00   0.01    -0.02   0.02  -0.02     0.00  -0.01  -0.00
  49   8     0.03   0.00  -0.03    -0.03   0.03  -0.00     0.04  -0.02   0.08
  50   8    -0.02   0.01   0.02     0.06  -0.03  -0.05    -0.19   0.01  -0.00
  51   6    -0.04   0.01  -0.05     0.06   0.02   0.05     0.03  -0.03   0.02
  52   6     0.00   0.00  -0.03     0.03   0.03   0.06    -0.00   0.03   0.05
  53   6     0.00   0.02  -0.02    -0.03   0.03  -0.05     0.03  -0.05   0.03
  54   6    -0.03   0.02  -0.05     0.01  -0.00   0.08    -0.05   0.04  -0.09
  55   7    -0.05   0.01   0.04     0.04  -0.00  -0.09    -0.07   0.02   0.08
  56   6    -0.02   0.00  -0.00     0.04  -0.01  -0.05    -0.02   0.00   0.02
  57   6     0.00   0.02  -0.02    -0.00  -0.02  -0.03    -0.03   0.03   0.02
  58   7     0.02   0.02  -0.01    -0.05  -0.01  -0.02     0.00   0.02   0.04
  59   6    -0.01   0.01   0.02    -0.02   0.00  -0.06    -0.00   0.01   0.05
  60   7     0.00   0.02  -0.01     0.04  -0.01  -0.07     0.02   0.06  -0.04
  61   6     0.03   0.04  -0.02    -0.02  -0.03  -0.05     0.03   0.09  -0.06
  62   7     0.02   0.03  -0.02    -0.01  -0.01  -0.05    -0.05   0.04   0.00
  63   8    -0.00   0.02   0.05    -0.05   0.01  -0.07     0.04  -0.00   0.04
  64   8     0.07   0.07  -0.04    -0.08  -0.07  -0.04     0.11   0.19  -0.14
  65   6    -0.03  -0.02   0.03     0.04   0.02  -0.10    -0.07  -0.01   0.09
  66   6    -0.03  -0.00   0.00     0.02  -0.02  -0.06     0.02   0.02  -0.06
  67   6     0.01   0.01  -0.01    -0.03  -0.00  -0.04    -0.09   0.01   0.04
  68   6     0.04   0.03  -0.02    -0.06  -0.02  -0.02     0.04   0.01   0.00
  69   6     0.03   0.02  -0.02    -0.05   0.04  -0.00     0.11  -0.05   0.02
  70   6     0.04   0.02   0.01    -0.03   0.03   0.00    -0.04  -0.01   0.01
  71   6    -0.00  -0.02  -0.01    -0.04   0.02  -0.00    -0.06   0.06   0.05
  72   6    -0.03  -0.02   0.02     0.01   0.02  -0.02     0.01   0.05  -0.03
  73   7     0.02   0.03   0.03    -0.00   0.02   0.01    -0.03  -0.03  -0.08
  74   6     0.00   0.01  -0.01    -0.00   0.01  -0.02    -0.03  -0.02  -0.03
  75   6    -0.01   0.01  -0.03     0.00   0.03  -0.00    -0.01  -0.04   0.01
  76   7     0.01   0.03   0.01    -0.02   0.03  -0.02     0.02  -0.04   0.03
  77   6     0.04   0.05   0.08    -0.02   0.02   0.00     0.00  -0.04  -0.05
  78   7    -0.02   0.03  -0.01     0.01   0.03  -0.05    -0.01  -0.03  -0.05
  79   6    -0.03   0.02  -0.02     0.04   0.00   0.00     0.02  -0.04  -0.01
  80   7    -0.04   0.04  -0.06     0.04   0.02   0.02     0.02  -0.03   0.00
  81   8     0.09   0.09   0.20    -0.03   0.03   0.01     0.01  -0.05  -0.10
  82   8    -0.04   0.01   0.00     0.09  -0.02   0.04     0.05  -0.07   0.01
  83   6    -0.02  -0.01  -0.00    -0.01  -0.00   0.00     0.01   0.03  -0.03
  84   6     0.00  -0.01   0.04     0.01   0.01  -0.06    -0.04   0.03  -0.10
  85   1     0.00  -0.00   0.00    -0.01   0.01  -0.02    -0.00  -0.01   0.00
  86   1     0.01   0.01  -0.01    -0.02   0.01   0.01    -0.00   0.03   0.00
  87   1    -0.01   0.01  -0.00     0.02  -0.00   0.01    -0.02   0.02   0.00
  88   1     0.00   0.01   0.01    -0.00   0.01  -0.01    -0.00  -0.02   0.01
  89   1     0.00   0.01   0.00    -0.01   0.00  -0.02    -0.00   0.02  -0.00
  90   1    -0.01   0.00  -0.00     0.00   0.02  -0.01     0.01  -0.00  -0.00
  91   1    -0.00   0.01   0.01     0.00  -0.00  -0.01     0.01   0.00  -0.01
  92   1    -0.00  -0.01   0.00     0.00   0.01  -0.00     0.00   0.02   0.01
  93   1     0.01   0.00  -0.01    -0.01   0.01   0.00     0.00  -0.02  -0.01
  94   1    -0.00  -0.00  -0.01    -0.01   0.01   0.00    -0.00   0.02  -0.01
  95   1    -0.01  -0.00  -0.01     0.01   0.02   0.02     0.01  -0.00   0.01
  96   1    -0.02   0.01  -0.02     0.03  -0.00   0.02     0.01  -0.01   0.01
  97   1     0.00  -0.00  -0.01     0.02   0.02   0.01     0.01   0.02   0.01
  98   1     0.01   0.00  -0.01     0.02   0.01   0.03     0.00   0.01   0.02
  99   1     0.00   0.00  -0.00    -0.01   0.01  -0.02     0.01  -0.01   0.01
 100   1     0.00   0.00  -0.01    -0.01   0.02  -0.02     0.01  -0.02   0.01
 101   1    -0.01   0.00  -0.02     0.00   0.00   0.04    -0.02   0.01  -0.04
 102   1    -0.01   0.01  -0.01    -0.01  -0.01   0.03    -0.01   0.03  -0.02
 103   1    -0.01  -0.01  -0.01     0.02  -0.00  -0.01    -0.00  -0.02   0.00
 104   1    -0.00   0.01  -0.01     0.00  -0.01   0.00    -0.01   0.01   0.01
 105   1    -0.00  -0.01   0.01     0.01   0.02  -0.02    -0.02  -0.01   0.02
 106   1    -0.01  -0.01   0.02     0.02   0.00  -0.04    -0.03  -0.00   0.04
 107   1    -0.01  -0.00   0.00     0.01  -0.00  -0.02     0.01   0.01  -0.03
 108   1    -0.01   0.00  -0.00     0.00  -0.01  -0.02     0.00  -0.01  -0.02
 109   1     0.01   0.00  -0.00    -0.01  -0.00  -0.01    -0.04  -0.00   0.02
 110   1     0.00   0.00   0.00    -0.01   0.00  -0.01    -0.02   0.01   0.02
 111   1     0.01   0.02  -0.01    -0.01  -0.01  -0.01     0.01   0.01  -0.00
 112   1     0.02   0.01  -0.01    -0.02  -0.01  -0.00     0.02   0.00  -0.01
 113   1     0.01   0.01  -0.01    -0.02   0.01  -0.00     0.06  -0.01   0.00
 114   1     0.01   0.01  -0.01    -0.01   0.02  -0.00     0.03  -0.04  -0.00
 115   1     0.01   0.01   0.00    -0.01   0.01   0.00    -0.01  -0.00   0.01
 116   1     0.02   0.01   0.00    -0.01   0.01   0.00    -0.01  -0.00   0.01
 117   1    -0.00  -0.01  -0.01    -0.02   0.01  -0.00    -0.02   0.01   0.03
 118   1    -0.00  -0.00  -0.01    -0.01   0.01   0.00    -0.01   0.03   0.02
 119   1    -0.01  -0.01   0.01     0.00   0.01  -0.00     0.00   0.02  -0.01
 120   1    -0.01  -0.00   0.01     0.01   0.00  -0.01     0.01   0.01  -0.02
 121   1     0.01  -0.00  -0.00    -0.00  -0.00  -0.01    -0.02  -0.00  -0.01
 122   1    -0.00  -0.01  -0.01    -0.00   0.02   0.00    -0.01  -0.01   0.01
 123   1    -0.01  -0.00  -0.00    -0.01  -0.00  -0.00     0.01   0.01  -0.01
 124   1    -0.01  -0.00   0.00    -0.01  -0.00   0.00     0.02   0.01  -0.01
 125   1     0.00  -0.01   0.02     0.00   0.00  -0.02    -0.02   0.02  -0.04
 126   1     0.01   0.00   0.01     0.00  -0.00  -0.02    -0.02  -0.01  -0.03
 127   6    -0.02   0.00  -0.01    -0.20  -0.12   0.16     0.09  -0.04  -0.10
 128   6     0.00  -0.00  -0.01    -0.15  -0.18   0.07     0.10  -0.02  -0.04
 129   6     0.02  -0.00  -0.00    -0.02  -0.15   0.03     0.09  -0.05   0.01
 130   6     0.02   0.00  -0.00     0.07  -0.04   0.08     0.08  -0.09   0.01
 131   6     0.03   0.00   0.00     0.15   0.01  -0.01     0.05  -0.10   0.03
 132   6    -0.02  -0.04   0.04     0.15   0.07  -0.01     0.04  -0.07   0.03
 133   7    -0.02  -0.05   0.07     0.15   0.05   0.02     0.06  -0.04   0.05
 134   7     0.00  -0.04   0.11     0.16   0.02   0.01     0.05  -0.02   0.04
 135   7     0.02  -0.03   0.11     0.12  -0.01   0.00     0.05  -0.01   0.02
 136   6     0.00  -0.04   0.07     0.07   0.01   0.01     0.06  -0.02   0.02
 137   6     0.02  -0.02   0.06     0.00  -0.01  -0.02     0.03  -0.02  -0.00
 138   6     0.01  -0.00   0.05    -0.04  -0.01  -0.03     0.01  -0.01  -0.01
 139   6    -0.00   0.01   0.03    -0.02  -0.01  -0.03    -0.00  -0.01  -0.02
 140   6     0.03  -0.02   0.01    -0.01  -0.01  -0.03    -0.01  -0.03  -0.03
 141   7     0.03  -0.04   0.04    -0.02  -0.02  -0.03     0.01  -0.03  -0.01
 142   7    -0.02  -0.05   0.06     0.10   0.05   0.02     0.08  -0.04   0.04
 143   6    -0.00   0.01  -0.01     0.04   0.02   0.18     0.07  -0.11  -0.05
 144   6    -0.02   0.01  -0.02    -0.10  -0.02   0.22     0.07  -0.09  -0.11
 145   1    -0.01   0.00  -0.00    -0.09  -0.04   0.05     0.03  -0.01  -0.04
 146   1     0.00  -0.00  -0.00    -0.06  -0.08   0.01     0.03   0.01  -0.01
 147   1     0.01  -0.00   0.00     0.01  -0.06  -0.01     0.02  -0.01   0.01
 148   1     0.02  -0.00   0.01     0.05  -0.01  -0.02     0.01  -0.03   0.01
 149   1     0.01   0.01  -0.01     0.05   0.02  -0.01     0.01  -0.04   0.01
 150   1    -0.02  -0.02   0.00     0.04   0.03   0.00     0.01  -0.02   0.01
 151   1    -0.01  -0.02   0.02     0.04   0.02  -0.02     0.00  -0.02   0.01
 152   1     0.00   0.00   0.02    -0.01  -0.00  -0.01     0.00  -0.00  -0.00
 153   1    -0.15   0.57  -0.47     0.00  -0.03   0.04     0.01  -0.05  -0.07
 154   1     0.02  -0.01   0.00    -0.00  -0.00  -0.01    -0.00  -0.01  -0.01
 155   1     0.01  -0.02   0.01     0.01   0.00  -0.01     0.01  -0.01  -0.00
 156   1    -0.00   0.01  -0.00     0.03   0.03   0.06     0.01  -0.04  -0.02
 157   1    -0.01   0.00  -0.01    -0.04   0.01   0.08     0.02  -0.03  -0.05
                     16                     17                     18
                        a                      a                      a 
 Frequencies --    74.2857                75.3387                80.3769
 Red. masses --    12.7184                13.8322                13.6606
 Frc consts  --     0.0000                 0.0000                 0.0000
 IR Inten    --    18.2795                 6.0636                17.0060
 Raman Activ --     0.0000                 0.0000                 0.0000
 Depolar     --     0.0000                 0.0000                 0.0000
 Atom AN      X      Y      Z        X      Y      Z        X      Y      Z
   1   7    -0.00   0.03   0.08    -0.01  -0.06   0.02     0.02  -0.04  -0.08
   2   6     0.02   0.03   0.05     0.00  -0.05   0.00    -0.01  -0.02  -0.01
   3   6     0.02   0.03   0.01    -0.00  -0.04   0.02    -0.01  -0.06  -0.02
   4   7    -0.00   0.05   0.04    -0.01  -0.06  -0.03     0.00  -0.03   0.08
   5   6    -0.01   0.03   0.03    -0.01  -0.06  -0.02     0.03  -0.04  -0.01
   6   7     0.00   0.05   0.04     0.04  -0.05  -0.02    -0.06  -0.07   0.07
   7   6     0.01   0.13  -0.10     0.04  -0.07   0.05    -0.06  -0.03  -0.03
   8   7     0.02   0.07  -0.05     0.02  -0.07   0.09    -0.02  -0.01  -0.12
   9   8    -0.02   0.02  -0.02    -0.02  -0.09  -0.06     0.06  -0.05  -0.02
  10   8     0.03   0.27  -0.28     0.07  -0.10   0.09    -0.11  -0.04  -0.04
  11   7    -0.03  -0.07  -0.05     0.00  -0.01   0.01    -0.02  -0.03   0.05
  12   6    -0.00  -0.04  -0.01     0.01  -0.00   0.01    -0.01  -0.03  -0.01
  13   6     0.02  -0.05   0.01    -0.00  -0.00   0.01    -0.02   0.02  -0.02
  14   7     0.07  -0.03   0.03    -0.01  -0.01  -0.00    -0.13  -0.02  -0.04
  15   6     0.02  -0.05  -0.02    -0.02  -0.02  -0.00    -0.09  -0.03   0.03
  16   7     0.03  -0.06   0.01     0.01  -0.00   0.03    -0.01  -0.04  -0.07
  17   6    -0.01  -0.03  -0.02    -0.00  -0.00   0.02     0.11  -0.06  -0.00
  18   7    -0.02  -0.04  -0.02    -0.01  -0.01   0.02     0.10  -0.01   0.02
  19   8     0.03  -0.06  -0.04    -0.05  -0.03  -0.02    -0.14  -0.03   0.06
  20   8    -0.04  -0.02  -0.04    -0.01  -0.00   0.03     0.25  -0.12   0.04
  21   7     0.06  -0.03   0.04     0.07   0.04   0.01     0.02  -0.06   0.01
  22   6     0.06  -0.02   0.02     0.01   0.05   0.01    -0.01  -0.04  -0.01
  23   6     0.05   0.00   0.02     0.02   0.00   0.01    -0.00  -0.04  -0.00
  24   7     0.10  -0.03   0.05    -0.07   0.05  -0.04    -0.01  -0.05  -0.00
  25   6     0.05  -0.02   0.04    -0.01   0.05  -0.04     0.01  -0.05   0.00
  26   7     0.07  -0.03  -0.02    -0.08   0.02   0.02    -0.05  -0.06  -0.02
  27   6    -0.01  -0.04  -0.06     0.00   0.02   0.08    -0.03  -0.06  -0.01
  28   7    -0.01  -0.02  -0.04     0.12   0.03   0.08     0.00  -0.05   0.00
  29   8     0.00  -0.00   0.04    -0.03   0.08  -0.08     0.02  -0.06   0.00
  30   8    -0.08  -0.08  -0.13    -0.01   0.01   0.13    -0.07  -0.08  -0.01
  31   7     0.02   0.00  -0.03     0.02  -0.01   0.05     0.00   0.02   0.03
  32   6     0.03  -0.01  -0.00     0.01   0.02   0.01     0.00   0.03  -0.00
  33   6     0.03   0.02   0.02     0.01  -0.00  -0.00     0.00   0.02  -0.01
  34   7    -0.03  -0.01   0.04     0.03  -0.01   0.01     0.04   0.04  -0.03
  35   6    -0.05  -0.04   0.03     0.02  -0.04   0.05     0.04   0.04  -0.01
[...]
  68   6     0.00   0.00  -0.00     0.00  -0.00  -0.00    -0.00   0.00   0.00
  69   6    -0.00   0.00  -0.00     0.00  -0.00  -0.00    -0.00  -0.00  -0.00
  70   6    -0.00   0.00  -0.00    -0.00  -0.00  -0.00    -0.00   0.00  -0.00
  71   6     0.00   0.00  -0.00     0.00  -0.00  -0.00     0.00   0.00  -0.00
  72   6     0.00   0.00  -0.00     0.00   0.00  -0.00     0.00   0.00  -0.00
  73   7     0.00   0.00   0.00     0.00   0.00   0.00     0.00   0.00   0.00
  74   6     0.00   0.00  -0.00    -0.00   0.00  -0.00     0.00   0.00  -0.00
  75   6    -0.00   0.00  -0.00    -0.00   0.00  -0.00    -0.00   0.00  -0.00
  76   7    -0.00   0.00   0.00    -0.00   0.00   0.00    -0.00   0.00   0.00
  77   6     0.00  -0.00  -0.00    -0.00  -0.00  -0.00     0.00  -0.00  -0.00
  78   7     0.00  -0.00   0.00     0.00  -0.00   0.00     0.00  -0.00   0.00
  79   6    -0.00   0.00   0.00    -0.00   0.00  -0.00    -0.00   0.00   0.00
  80   7    -0.00  -0.00   0.00    -0.00  -0.00   0.00    -0.00  -0.00   0.00
  81   8    -0.00   0.00   0.00    -0.00   0.00  -0.00    -0.00   0.00   0.00
  82   8    -0.00   0.00  -0.00     0.00  -0.00   0.00     0.00   0.00  -0.00
  83   6     0.00   0.00  -0.00     0.00   0.00  -0.00     0.00   0.00  -0.00
  84   6     0.00   0.00   0.00     0.00  -0.00  -0.00     0.00  -0.00   0.00
  85   1    -0.00  -0.00   0.00     0.00   0.00  -0.00     0.00   0.00  -0.00
  86   1     0.00  -0.00   0.00    -0.00   0.00  -0.00    -0.00   0.00  -0.00
  87   1    -0.00  -0.00  -0.00    -0.00   0.00  -0.00    -0.00   0.00  -0.00
  88   1    -0.00  -0.00   0.00    -0.00   0.00  -0.00    -0.00   0.00  -0.00
  89   1    -0.00  -0.00   0.00    -0.00  -0.00   0.00     0.00   0.00  -0.00
  90   1    -0.00  -0.00  -0.00    -0.00   0.00  -0.00     0.00  -0.00   0.00
  91   1     0.00  -0.00   0.00     0.00  -0.00   0.00    -0.00  -0.00   0.00
  92   1     0.00   0.00   0.00    -0.00  -0.00   0.00    -0.00  -0.00   0.00
  93   1    -0.00   0.00  -0.00    -0.00   0.00  -0.00    -0.00   0.00  -0.00
  94   1    -0.00   0.00   0.00    -0.00   0.00   0.00    -0.00   0.00   0.00
  95   1    -0.00  -0.00  -0.00     0.00   0.00   0.00    -0.00  -0.00  -0.00
  96   1    -0.00  -0.00  -0.00     0.00   0.00   0.00    -0.00  -0.00  -0.00
  97   1    -0.00   0.00  -0.00    -0.00   0.00  -0.00    -0.00   0.00  -0.00
  98   1    -0.00  -0.00  -0.00    -0.00   0.00   0.00    -0.00  -0.00  -0.00
  99   1     0.00  -0.00  -0.00     0.00  -0.00   0.00     0.00  -0.00  -0.00
 100   1     0.00  -0.00   0.00    -0.00   0.00  -0.00     0.00  -0.00   0.00
 101   1    -0.00  -0.00   0.00    -0.00   0.00  -0.00    -0.00   0.00  -0.00
 102   1     0.00  -0.00   0.00    -0.00  -0.00  -0.00    -0.00  -0.00  -0.00
 103   1    -0.00  -0.00   0.00    -0.00  -0.00   0.00     0.00   0.00  -0.00
 104   1    -0.00  -0.00  -0.00    -0.00  -0.00  -0.00     0.00   0.00   0.00
 105   1    -0.00  -0.00   0.00    -0.00  -0.00   0.00     0.00  -0.00  -0.00
 106   1    -0.00  -0.00  -0.00    -0.00  -0.00  -0.00     0.00   0.00  -0.00
 107   1     0.00  -0.00  -0.00    -0.00   0.00   0.00    -0.00  -0.00  -0.00
 108   1    -0.00   0.00   0.00    -0.00   0.00   0.00     0.00   0.00  -0.00
 109   1     0.00  -0.00  -0.00     0.00  -0.00  -0.00     0.00   0.00   0.00
 110   1    -0.00   0.00   0.00    -0.00   0.00   0.00    -0.00   0.00  -0.00
 111   1    -0.00  -0.00   0.00    -0.00  -0.00   0.00    -0.00  -0.00   0.00
 112   1     0.00  -0.00  -0.00     0.00  -0.00  -0.00     0.00  -0.00  -0.00
 113   1    -0.00  -0.00   0.00    -0.00   0.00   0.00    -0.00   0.00   0.00
 114   1     0.00  -0.00   0.00    -0.00   0.00  -0.00     0.00  -0.00   0.00
 115   1     0.00   0.00   0.00     0.00   0.00  -0.00     0.00   0.00  -0.00
 116   1    -0.00  -0.00  -0.00    -0.00   0.00   0.00    -0.00  -0.00  -0.00
 117   1     0.00  -0.00   0.00    -0.00   0.00   0.00    -0.00  -0.00  -0.00
 118   1    -0.00   0.00   0.00    -0.00   0.00   0.00    -0.00  -0.00   0.00
 119   1    -0.00  -0.00   0.00    -0.00  -0.00   0.00    -0.00   0.00   0.00
 120   1    -0.00  -0.00   0.00    -0.00  -0.00   0.00    -0.00  -0.00   0.00
 121   1    -0.00  -0.00   0.00    -0.00  -0.00   0.00    -0.00  -0.00   0.00
 122   1     0.00  -0.00   0.00     0.00  -0.00   0.00     0.00  -0.00   0.00
 123   1    -0.00  -0.00   0.00    -0.00  -0.00   0.00    -0.00  -0.00   0.00
 124   1    -0.00  -0.00  -0.00    -0.00  -0.00  -0.00    -0.00  -0.00   0.00
 125   1    -0.00  -0.00  -0.00     0.00   0.00   0.00    -0.00   0.00   0.00
 126   1    -0.00   0.00   0.00    -0.00  -0.00   0.00    -0.00  -0.00  -0.00
 127   6    -0.01   0.09   0.05    -0.00   0.04   0.02    -0.01   0.06   0.03
 128   6    -0.11   0.01   0.16    -0.09   0.01   0.13    -0.02  -0.00   0.03
 129   6     0.08   0.13  -0.06    -0.11  -0.18   0.08    -0.01  -0.02   0.01
 130   6     0.00   0.01  -0.00     0.00  -0.01  -0.00    -0.00  -0.00   0.00
 131   6     0.00   0.00  -0.00    -0.00  -0.00   0.00    -0.00  -0.00   0.00
 132   6     0.00   0.00  -0.00    -0.00  -0.00   0.00    -0.00  -0.00   0.00
 133   7     0.00  -0.00  -0.00    -0.00  -0.00   0.00    -0.00  -0.00   0.00
 134   7     0.00  -0.00   0.00    -0.00   0.00  -0.00     0.00   0.00  -0.00
 135   7    -0.00   0.00   0.00     0.00  -0.00  -0.00     0.00  -0.00  -0.00
 136   6    -0.00   0.00  -0.00     0.00  -0.00   0.00    -0.00  -0.00  -0.00
 137   6    -0.00   0.00   0.00    -0.00   0.00   0.00     0.00   0.00   0.00
 138   6    -0.00   0.00  -0.00     0.00   0.00  -0.00     0.00  -0.00  -0.00
 139   6     0.00  -0.00  -0.00     0.00  -0.00  -0.00    -0.00   0.00   0.00
 140   6     0.00  -0.00   0.00    -0.00  -0.00   0.00     0.00   0.00   0.00
 141   7     0.00  -0.00  -0.00     0.00  -0.00  -0.00    -0.00  -0.00   0.00
 142   7    -0.00   0.00  -0.00     0.00   0.00   0.00    -0.00   0.00   0.00
 143   6    -0.00  -0.00  -0.00    -0.00   0.00   0.00    -0.01   0.00   0.01
 144   6    -0.01  -0.03   0.01    -0.02  -0.04   0.02     0.11   0.22  -0.10
 145   1     0.04  -0.29  -0.15     0.02  -0.13  -0.07     0.02  -0.18  -0.09
 146   1     0.39  -0.04  -0.56     0.31  -0.03  -0.44     0.08  -0.01  -0.11
 147   1    -0.28  -0.46   0.21     0.37   0.61  -0.27     0.04   0.06  -0.03
 148   1    -0.00  -0.01   0.01     0.01   0.01  -0.01     0.00   0.00  -0.00
 149   1    -0.00   0.00   0.00     0.01  -0.00  -0.00     0.00  -0.00  -0.00
 150   1    -0.00  -0.00   0.00     0.01   0.01  -0.01     0.00   0.00  -0.00
 151   1     0.00  -0.00  -0.00     0.00   0.00   0.00     0.00  -0.00   0.00
 152   1    -0.00  -0.01   0.00    -0.00  -0.01   0.01    -0.00   0.00  -0.00
 153   1     0.00   0.00   0.00     0.00  -0.00   0.00     0.00   0.00   0.00
 154   1     0.00   0.00  -0.00     0.00   0.00  -0.00    -0.00  -0.00   0.00
 155   1    -0.00   0.00   0.00    -0.00   0.00   0.00     0.00   0.00  -0.00
 156   1    -0.00   0.00   0.00    -0.00  -0.00   0.00     0.05  -0.01  -0.08
 157   1     0.05   0.10  -0.05     0.07   0.14  -0.07    -0.38  -0.76   0.36
                    463                    464                    465
                        a                      a                      a 
 Frequencies --  3138.2822              3158.9865              3402.9991
 Red. masses --     1.8243                 1.8060                 1.8494
 Frc consts  --     0.0000                 0.0000                 0.0000
 IR Inten    --    52.0741                27.6216               210.7298
 Raman Activ --     0.0000                 0.0000                 0.0000
 Depolar     --     0.0000                 0.0000                 0.0000
 Atom AN      X      Y      Z        X      Y      Z        X      Y      Z
   1   7    -0.00  -0.00   0.00    -0.00   0.00   0.00    -0.00   0.00   0.00
   2   6     0.00   0.00  -0.00     0.00  -0.00  -0.00     0.00   0.00  -0.00
   3   6    -0.00   0.00  -0.00    -0.00   0.00  -0.00     0.00  -0.00  -0.00
   4   7     0.00  -0.00   0.00    -0.00   0.00   0.00    -0.00   0.00   0.00
   5   6     0.00   0.00  -0.00     0.00   0.00  -0.00     0.00  -0.00   0.00
   6   7     0.00  -0.00  -0.00    -0.00  -0.00   0.00    -0.00  -0.00   0.00
   7   6     0.00   0.00   0.00     0.00   0.00  -0.00     0.00   0.00  -0.00
   8   7    -0.00  -0.00  -0.00    -0.00  -0.00   0.00    -0.00  -0.00   0.00
   9   8    -0.00  -0.00   0.00    -0.00  -0.00   0.00    -0.00   0.00  -0.00
  10   8     0.00  -0.00  -0.00    -0.00   0.00   0.00    -0.00  -0.00  -0.00
  11   7    -0.00  -0.00   0.00     0.00   0.00   0.00     0.00   0.00  -0.00
  12   6    -0.00   0.00  -0.00    -0.00  -0.00  -0.00    -0.00  -0.00  -0.00
  13   6    -0.00   0.00  -0.00    -0.00  -0.00  -0.00    -0.00   0.00   0.00
  14   7    -0.00   0.00   0.00    -0.00  -0.00   0.00    -0.00  -0.00  -0.00
  15   6     0.00   0.00  -0.00    -0.00   0.00  -0.00    -0.00  -0.00   0.00
  16   7    -0.00   0.00   0.00     0.00  -0.00   0.00     0.00  -0.00  -0.00
  17   6     0.00   0.00  -0.00    -0.00  -0.00  -0.00    -0.00   0.00   0.00
  18   7    -0.00  -0.00   0.00    -0.00   0.00  -0.00    -0.00   0.00  -0.00
  19   8     0.00  -0.00   0.00     0.00  -0.00  -0.00    -0.00   0.00  -0.00
  20   8    -0.00  -0.00   0.00    -0.00   0.00  -0.00    -0.00  -0.00  -0.00
  21   7    -0.00  -0.00   0.00    -0.00   0.00  -0.00    -0.00  -0.00   0.00
  22   6     0.00   0.00   0.00     0.00   0.00   0.00    -0.00   0.00  -0.00
  23   6     0.00   0.00   0.00     0.00  -0.00   0.00    -0.00   0.00  -0.00
  24   7    -0.00  -0.00  -0.00    -0.00  -0.00   0.00     0.00  -0.00   0.00
  25   6     0.00   0.00   0.00     0.00  -0.00   0.00    -0.00   0.00  -0.00
  26   7     0.00  -0.00   0.00    -0.00  -0.00  -0.00    -0.00  -0.00   0.00
  27   6    -0.00   0.00  -0.00    -0.00   0.00   0.00    -0.00   0.00  -0.00
  28   7     0.00  -0.00   0.00     0.00  -0.00   0.00     0.00  -0.00   0.00
  29   8    -0.00  -0.00  -0.00    -0.00   0.00  -0.00     0.00  -0.00   0.00
  30   8     0.00  -0.00   0.00     0.00  -0.00  -0.00     0.00  -0.00   0.00
  31   7     0.00   0.00   0.00    -0.00  -0.00   0.00     0.00  -0.00   0.00
  32   6     0.00  -0.00   0.00     0.00  -0.00  -0.00     0.00   0.00  -0.00
  33   6    -0.00  -0.00   0.00    -0.00   0.00  -0.00     0.00   0.00  -0.00
  34   7     0.00   0.00  -0.00    -0.00  -0.00   0.00     0.00  -0.00   0.00
  35   6    -0.00  -0.00  -0.01     0.00   0.00   0.00    -0.00   0.00   0.00
  36   7    -0.00   0.00  -0.00    -0.00   0.00   0.00     0.00  -0.00   0.00
  37   6     0.00   0.00   0.00     0.00  -0.00  -0.00    -0.00  -0.00  -0.00
  38   7    -0.00   0.00  -0.00    -0.00   0.00   0.00     0.00  -0.00   0.00
  39   8    -0.00   0.00   0.00    -0.00  -0.00   0.00     0.00  -0.00  -0.00
  40   8    -0.00  -0.00  -0.00    -0.00   0.00   0.00     0.00   0.00   0.00
  41   7     0.00   0.00  -0.00    -0.00  -0.00   0.00    -0.00  -0.00  -0.00
  42   6    -0.00   0.00  -0.00     0.00   0.00  -0.00     0.00   0.00  -0.00
  43   6    -0.00  -0.00  -0.00    -0.00   0.00   0.00     0.00   0.00   0.00
  44   7     0.00   0.00   0.00    -0.00  -0.00  -0.00    -0.00  -0.00   0.00
  45   6     0.00  -0.00   0.00     0.00   0.00   0.00    -0.00   0.00   0.00
  46   7     0.00  -0.00   0.00    -0.00  -0.00   0.00    -0.00   0.00  -0.00
  47   6     0.00  -0.00   0.00    -0.00  -0.00  -0.00    -0.00  -0.00   0.00
  48   7     0.00  -0.00  -0.00    -0.00   0.00   0.00    -0.00   0.00   0.00
  49   8    -0.00   0.00  -0.00    -0.00  -0.00  -0.00     0.00  -0.00  -0.00
  50   8    -0.00  -0.00  -0.00     0.00   0.00   0.00     0.00   0.00   0.00
  51   6     0.00  -0.00   0.00    -0.00   0.00  -0.00     0.00   0.00  -0.00
  52   6     0.00  -0.00  -0.00     0.00  -0.00  -0.00     0.00   0.00  -0.00
  53   6     0.00  -0.00   0.00    -0.00  -0.00  -0.00     0.00   0.00  -0.00
  54   6    -0.00   0.00  -0.00     0.00   0.00  -0.00    -0.00  -0.00  -0.00
  55   7     0.00  -0.00   0.00    -0.00  -0.00   0.00    -0.00   0.00   0.00
  56   6     0.00   0.00  -0.00     0.00  -0.00  -0.00    -0.00   0.00   0.00
  57   6     0.00   0.00  -0.00     0.00  -0.00  -0.00    -0.00   0.00   0.00
  58   7    -0.00  -0.00   0.00    -0.00  -0.00   0.00     0.00  -0.00   0.00
  59   6     0.00   0.00  -0.00     0.00   0.00   0.00     0.00  -0.00   0.00
  60   7     0.00  -0.00  -0.00    -0.00  -0.00   0.00    -0.00  -0.00  -0.00
  61   6    -0.00   0.00   0.00     0.00   0.00  -0.00    -0.00   0.00   0.00
  62   7     0.00  -0.00   0.00    -0.00  -0.00   0.00     0.00  -0.00  -0.00
  63   8    -0.00  -0.00   0.00    -0.00   0.00   0.00     0.00  -0.00  -0.00
  64   8     0.00  -0.00  -0.00    -0.00  -0.00   0.00     0.00  -0.00  -0.00
  65   6     0.00   0.00  -0.00     0.00  -0.00   0.00    -0.00  -0.00   0.00
  66   6     0.00  -0.00  -0.00     0.00  -0.00  -0.00    -0.00   0.00   0.00
  67   6     0.00  -0.00  -0.00     0.00   0.00  -0.00    -0.00   0.00  -0.00
  68   6     0.00  -0.00  -0.00     0.00   0.00  -0.00    -0.00   0.00  -0.00
  69   6    -0.00   0.00  -0.00     0.00   0.00  -0.00     0.00   0.00   0.00
  70   6    -0.00   0.00  -0.00    -0.00   0.00   0.00     0.00  -0.00   0.00
  71   6     0.00  -0.00  -0.00    -0.00  -0.00   0.00     0.00   0.00  -0.00
  72   6    -0.00   0.00   0.00    -0.00   0.00  -0.00    -0.00  -0.00  -0.00
  73   7    -0.00  -0.00   0.00     0.00   0.00   0.00     0.00  -0.00   0.00
  74   6     0.00  -0.00   0.00    -0.00   0.00  -0.00    -0.00   0.00  -0.00
  75   6     0.00   0.00   0.00    -0.00  -0.00  -0.00    -0.00   0.00  -0.00
  76   7    -0.00  -0.00  -0.00    -0.00   0.00   0.00     0.00  -0.00   0.00
  77   6     0.00   0.00   0.00    -0.00  -0.00  -0.00    -0.00  -0.00  -0.00
  78   7     0.00   0.00  -0.00    -0.00  -0.00   0.00     0.00  -0.00   0.00
  79   6    -0.00   0.00   0.00    -0.00   0.00  -0.00     0.00   0.00  -0.00
  80   7     0.00   0.00  -0.00     0.00  -0.00   0.00    -0.00  -0.00   0.00
  81   8    -0.00  -0.00   0.00     0.00   0.00   0.00     0.00  -0.00   0.00
  82   8     0.00  -0.00  -0.00     0.00  -0.00   0.00    -0.00  -0.00   0.00
  83   6     0.00  -0.00   0.00     0.00  -0.00  -0.00    -0.00  -0.00  -0.00
  84   6    -0.00   0.00   0.00     0.00   0.00  -0.00    -0.00   0.00  -0.00
  85   1    -0.00  -0.00   0.00    -0.00  -0.00   0.00    -0.00  -0.00   0.00
  86   1     0.00  -0.00   0.00     0.00  -0.00   0.00     0.00   0.00   0.00
  87   1     0.00  -0.00   0.00     0.00  -0.00   0.00     0.00   0.00   0.00
  88   1     0.00  -0.00   0.00     0.00  -0.00   0.00    -0.00   0.00  -0.00
  89   1    -0.00  -0.00   0.00    -0.00  -0.00   0.00     0.00  -0.00   0.00
  90   1    -0.00   0.00  -0.00    -0.00   0.00  -0.00     0.00  -0.00   0.00
  91   1    -0.00   0.00  -0.00     0.00   0.00  -0.00     0.00  -0.00   0.00
  92   1    -0.00   0.00   0.00     0.00   0.00  -0.00    -0.00  -0.00   0.00
  93   1     0.00  -0.00   0.00     0.00  -0.00   0.00    -0.00  -0.00   0.00
  94   1     0.00  -0.00  -0.00     0.00  -0.00  -0.00     0.00  -0.00  -0.00
  95   1    -0.00   0.00  -0.00     0.00   0.00  -0.00     0.00   0.00   0.00
  96   1    -0.00  -0.00   0.00    -0.00  -0.00  -0.00    -0.00   0.00   0.00
  97   1     0.00   0.00   0.00     0.00  -0.00   0.00     0.00   0.00   0.00
  98   1     0.00   0.00   0.00     0.00   0.00   0.00    -0.00   0.00  -0.00
  99   1    -0.00   0.00  -0.00    -0.00  -0.00  -0.00    -0.00  -0.00   0.00
 100   1    -0.00   0.00  -0.00     0.00  -0.00   0.00     0.00  -0.00   0.00
 101   1    -0.00  -0.00  -0.00    -0.00  -0.00   0.00    -0.00   0.00  -0.00
 102   1     0.00  -0.00   0.00     0.00  -0.00   0.00     0.00  -0.00   0.00
 103   1    -0.00  -0.00   0.00     0.00   0.00   0.00     0.00  -0.00  -0.00
 104   1    -0.00  -0.00   0.00     0.00   0.00  -0.00     0.00  -0.00  -0.00
 105   1    -0.00  -0.00   0.00    -0.00  -0.00  -0.00     0.00  -0.00  -0.00
 106   1     0.00   0.00  -0.00     0.00   0.00   0.00     0.00   0.00   0.00
 107   1    -0.00   0.00   0.00    -0.00   0.00   0.00     0.00  -0.00   0.00
 108   1    -0.00  -0.00   0.00    -0.00  -0.00   0.00     0.00   0.00   0.00
 109   1    -0.00   0.00   0.00    -0.00   0.00   0.00    -0.00  -0.00   0.00
 110   1    -0.00  -0.00   0.00    -0.00   0.00   0.00     0.00  -0.00   0.00
 111   1    -0.00  -0.00   0.00     0.00  -0.00   0.00     0.00   0.00   0.00
 112   1     0.00   0.00   0.00     0.00  -0.00  -0.00     0.00   0.00   0.00
 113   1    -0.00  -0.00   0.00     0.00  -0.00   0.00    -0.00   0.00   0.00
 114   1     0.00  -0.00   0.00     0.00   0.00   0.00    -0.00  -0.00   0.00
 115   1     0.00   0.00   0.00     0.00   0.00   0.00    -0.00  -0.00  -0.00
 116   1     0.00  -0.00   0.00     0.00  -0.00   0.00     0.00  -0.00  -0.00
 117   1     0.00   0.00   0.00     0.00   0.00   0.00     0.00  -0.00   0.00
 118   1    -0.00   0.00   0.00     0.00   0.00  -0.00    -0.00   0.00   0.00
 119   1     0.00  -0.00  -0.00     0.00  -0.00  -0.00     0.00  -0.00   0.00
 120   1     0.00   0.00  -0.00    -0.00  -0.00  -0.00    -0.00  -0.00   0.00
 121   1    -0.00   0.00  -0.00    -0.00  -0.00   0.00    -0.00  -0.00   0.00
 122   1    -0.00   0.00  -0.00     0.00  -0.00   0.00     0.00  -0.00   0.00
 123   1    -0.00   0.00  -0.00     0.00  -0.00  -0.00     0.00  -0.00   0.00
 124   1     0.00   0.00   0.00     0.00  -0.00  -0.00    -0.00   0.00  -0.00
 125   1    -0.00   0.00  -0.00     0.00   0.00  -0.00    -0.00   0.00  -0.00
 126   1     0.00   0.00   0.00    -0.00   0.00   0.00    -0.00   0.00   0.00
 127   6     0.00  -0.00  -0.00     0.00  -0.00  -0.00     0.00  -0.00  -0.00
 128   6     0.00  -0.00  -0.00     0.00  -0.00  -0.00     0.00   0.00  -0.00
 129   6     0.00   0.00  -0.00     0.00   0.00  -0.00     0.00   0.00  -0.00
 130   6    -0.00   0.00   0.00    -0.00   0.01   0.01     0.00   0.00   0.00
 131   6     0.00   0.00  -0.00    -0.00  -0.00   0.00     0.00  -0.00  -0.00
 132   6    -0.00  -0.00   0.00    -0.00  -0.00   0.00     0.00   0.00   0.00
 133   7    -0.00   0.00  -0.00    -0.00  -0.00   0.00    -0.00  -0.00  -0.00
 134   7    -0.00   0.00   0.00     0.00   0.00  -0.00     0.00  -0.00  -0.00
 135   7     0.00  -0.00   0.00     0.00   0.00  -0.00    -0.00   0.00  -0.00
 136   6     0.00  -0.00  -0.00    -0.00   0.00   0.00     0.00  -0.00  -0.00
 137   6    -0.00   0.01  -0.00     0.00  -0.00  -0.00     0.00   0.00  -0.01
 138   6     0.02   0.25  -0.11    -0.00  -0.00   0.00    -0.00   0.00   0.01
 139   6     0.00   0.00  -0.01     0.00  -0.00  -0.00     0.00  -0.00  -0.00
 140   6    -0.00  -0.00   0.00     0.00   0.00  -0.00     0.00   0.00  -0.00
 141   7     0.00  -0.00   0.00     0.00   0.00  -0.00     0.04  -0.00  -0.25
 142   7     0.00  -0.00  -0.00     0.00   0.00   0.00    -0.00   0.00   0.00
 143   6    -0.00   0.00   0.00    -0.14   0.02   0.22    -0.00  -0.00  -0.00
 144   6     0.00   0.00  -0.00    -0.01  -0.03   0.01     0.00   0.00  -0.00
 145   1    -0.00   0.00   0.00    -0.00   0.01   0.01    -0.00   0.00   0.00
 146   1    -0.01   0.00   0.01    -0.00   0.00   0.01    -0.00   0.00   0.00
 147   1    -0.00  -0.01   0.00    -0.00  -0.01   0.00    -0.00  -0.00   0.00
 148   1    -0.00  -0.00   0.00     0.00   0.00  -0.00    -0.00  -0.00   0.00
 149   1    -0.00   0.00  -0.00     0.01  -0.00  -0.00    -0.00  -0.00   0.00
 150   1     0.00   0.00  -0.00     0.01   0.01  -0.01    -0.00  -0.00   0.00
 151   1     0.00   0.00   0.00     0.00   0.00   0.00    -0.00  -0.00  -0.00
 152   1    -0.08  -0.87   0.41     0.00   0.01  -0.00    -0.00   0.00  -0.00
 153   1    -0.00  -0.00   0.00    -0.00  -0.00   0.00     0.00  -0.00   0.00
 154   1     0.00   0.00  -0.00    -0.00  -0.00   0.00    -0.00  -0.00   0.00
 155   1    -0.00   0.00   0.01    -0.00   0.00   0.00    -0.13   0.00   0.96
 156   1     0.00  -0.00  -0.01     0.52  -0.07  -0.80    -0.00  -0.00   0.00
 157   1    -0.00  -0.00   0.00     0.04   0.07  -0.03    -0.00  -0.00   0.00
