      -----------------------------------------------------------      
     |                   =====================                   |     
     |                           x T B                           |     
     |                   =====================                   |     
     |                         S. Grimme                         |     
     |          Mulliken Center for Theoretical Chemistry        |     
     |                    University of Bonn                     |     
      -----------------------------------------------------------      

   * xtb version 6.6.1 (8d0f1dd) compiled by 'conda@1efc2f54142f' on 2023-08-01

   xtb is free software: you can redistribute it and/or modify it under
   the terms of the GNU Lesser General Public License as published by
   the Free Software Foundation, either version 3 of the License, or
   (at your option) any later version.
   
   xtb is distributed in the hope that it will be useful,
   but WITHOUT ANY WARRANTY; without even the implied warranty of
   MERCHANTABILITY or FITNESS FOR A PARTICULAR PURPOSE.  See the
   GNU Lesser General Public License for more details.
   
   Cite this work as:
   * C. Bannwarth, E. Caldeweyher, S. Ehlert, A. Hansen, P. Pracht,
     J. Seibert, S. Spicher, S. Grimme, WIREs Comput. Mol. Sci., 2020, 11,
     e01493. DOI: 10.1002/wcms.1493
   
   for GFN2-xTB:
   * C. Bannwarth, S. Ehlert and S. Grimme., J. Chem. Theory Comput., 2019,
     15, 1652-1671. DOI: 10.1021/acs.jctc.8b01176
   for GFN1-xTB:
   * S. Grimme, C. Bannwarth, P. Shushkov, J. Chem. Theory Comput., 2017,
     13, 1989-2009. DOI: 10.1021/acs.jctc.7b00118
   for GFN0-xTB:
   * P. Pracht, E. Caldeweyher, S. Ehlert, S. Grimme, ChemRxiv, 2019, preprint.
     DOI: 10.26434/chemrxiv.8326202.v1
   for GFN-FF:
   * S. Spicher and S. Grimme, Angew. Chem. Int. Ed., 2020, 59, 15665-15673.
     DOI: 10.1002/anie.202004239
   
   for ALPB and GBSA implicit solvation:
   * S. Ehlert, M. Stahn, S. Spicher, S. Grimme, J. Chem. Theory Comput.,
     2021, 17, 4250-4261. DOI: 10.1021/acs.jctc.1c00471
   
   for DFT-D4:
   * E. Caldeweyher, C. Bannwarth and S. Grimme, J. Chem. Phys., 2017,
     147, 034112. DOI: 10.1063/1.4993215
   * E. Caldeweyher, S. Ehlert, A. Hansen, H. Neugebauer, S. Spicher,
     C. Bannwarth and S. Grimme, J. Chem. Phys., 2019, 150, 154122.
     DOI: 10.1063/1.5090222
   * E. Caldeweyher, J.-M. Mewes, S. Ehlert and S. Grimme, Phys. Chem. Chem. Phys.
     2020, 22, 8499-8512. DOI: 10.1039/D0CP00502A
   
   for sTDA-xTB:
   * S. Grimme and C. Bannwarth, J. Chem. Phys., 2016, 145, 054103.
     DOI: 10.1063/1.4959605
   
   in the mass-spec context:
   * V. Asgeirsson, C. Bauer and S. Grimme, Chem. Sci., 2017, 8, 4879.
     DOI: 10.1039/c7sc00601b
   * J. Koopman and S. Grimme, ACS Omega 2019, 4, 12, 15120-15133.
     DOI: 10.1021/acsomega.9b02011
   
   for metadynamics refer to:
   * S. Grimme, J. Chem. Theory Comput., 2019, 155, 2847-2862
     DOI: 10.1021/acs.jctc.9b00143
   
   for SPH calculations refer to:
   * S. Spicher and S. Grimme, J. Chem. Theory Comput., 2021, 17, 1701-1714
     DOI: 10.1021/acs.jctc.0c01306
   
   with help from (in alphabetical order)
   P. Atkinson, C. Bannwarth, F. Bohle, G. Brandenburg, E. Caldeweyher
   M. Checinski, S. Dohm, S. Ehlert, S. Ehrlich, I. Gerasimov, C. Hölzer
   A. Katbashev, J. Koopman, C. Lavigne, S. Lehtola, F. März, M. Müller,
   F. Musil, H. Neugebauer, J. Pisarek, C. Plett, P. Pracht, F. Pultar,
   J. Seibert, P. Shushkov, S. Spicher, M. Stahn, M. Steiner, T. Strunk,
   J. Stückrath, T. Rose, and J. Unsleber
   
 * started run on 2023/10/30 at 02:07:33.957     

           -------------------------------------------------
          |                Calculation Setup                |
           -------------------------------------------------

          program call               : xtb mol.sdf --ohess normal --alpb water
          coordinate file            : mol.sdf
          omp threads                :                     8

   ID    Z sym.   atoms
    1    6 C      1-6, 10-14, 17, 18
    2    7 N      7-9, 15, 16
    3    1 H      19-31

           -------------------------------------------------
          |                 G F N 2 - x T B                 |
           -------------------------------------------------

        Reference                      10.1021/acs.jctc.8b01176
      * Hamiltonian:
        H0-scaling (s, p, d)           1.850000    2.230000    2.230000
        zeta-weighting                 0.500000
      * Dispersion:
        s8                             2.700000
        a1                             0.520000
        a2                             5.000000
        s9                             5.000000
      * Repulsion:
        kExp                           1.500000    1.000000
        rExp                           1.000000
      * Coulomb:
        alpha                          2.000000
        third order                    shell-resolved
        anisotropic                    true
        a3                             3.000000
        a5                             4.000000
        cn-shift                       1.200000
        cn-exp                         4.000000
        max-rad                        5.000000

      * Solvation model:               ALPB
        Solvent                        water
        Parameter file                 internal GFN2-xTB/ALPB
        Dielectric constant                8.0200E+01
        Reference state                gsolv [1 M gas/solution]
        Free energy shift                  1.0808E-03 Eh       6.7819E-01 kcal/mol
        Temperature                        2.9815E+02 K
        Density                            1.0000E+00 kg/L
        Solvent mass                       1.8000E+01 g/mol
        Interaction kernel             P16
        Born radius scaling (c1)           1.4744E+00
        Born radii integrator          GBOBC
        Born offset                        0.0000E+00 a0       0.0000E+00 AA
        H-bond correction              true
        Ion screening                  false
        Surface tension                    1.0000E-05 Eh       1.5569E+01 dyn/cm
        Grid points                               230 per atom

          ...................................................
          :                      SETUP                      :
          :.................................................:
          :  # basis functions                  85          :
          :  # atomic orbitals                  85          :
          :  # shells                           49          :
          :  # electrons                        90          :
          :  max. iterations                   250          :
          :  Hamiltonian                  GFN2-xTB          :
          :  restarted?                      false          :
          :  GBSA solvation                   true          :
          :  PC potential                    false          :
          :  electronic temp.          300.0000000     K    :
          :  accuracy                    1.0000000          :
          :  -> integral cutoff          0.2500000E+02      :
          :  -> integral neglect         0.1000000E-07      :
          :  -> SCF convergence          0.1000000E-05 Eh   :
          :  -> wf. convergence          0.1000000E-03 e    :
          :  Broyden damping             0.4000000          :
          ...................................................

 iter      E             dE          RMSdq      gap      omega  full diag
   1    -49.6598842 -0.496599E+02  0.394E+00    3.80       0.0  T
   2    -49.7580504 -0.981662E-01  0.255E+00    2.78       1.0  T
   3    -49.7662635 -0.821313E-02  0.129E+00    2.93       1.0  T
   4    -49.7701988 -0.393524E-02  0.296E-01    2.80       1.0  T
   5    -49.7721135 -0.191474E-02  0.899E-02    2.77       1.0  T
   6    -49.7721530 -0.395003E-04  0.461E-02    2.78       1.0  T
   7    -49.7721681 -0.150787E-04  0.137E-02    2.79       1.3  T
   8    -49.7721685 -0.443022E-06  0.606E-03    2.79       3.0  T
   9    -49.7721690 -0.438339E-06  0.279E-03    2.79       6.4  T
  10    -49.7721690 -0.461446E-07  0.144E-03    2.79      12.5  T
  11    -49.7721690 -0.145396E-07  0.702E-04    2.79      25.6  T
  12    -49.7721690 -0.289873E-08  0.308E-04    2.79      58.3  T

   *** convergence criteria satisfied after 12 iterations ***

         #    Occupation            Energy/Eh            Energy/eV
      -------------------------------------------------------------
         1        2.0000           -0.7321916             -19.9239
       ...           ...                  ...                  ...
        39        2.0000           -0.4218293             -11.4786
        40        2.0000           -0.4116214             -11.2008
        41        2.0000           -0.4040087             -10.9936
        42        2.0000           -0.4015051             -10.9255
        43        2.0000           -0.4010522             -10.9132
        44        2.0000           -0.3959036             -10.7731
        45        2.0000           -0.3699909             -10.0680 (HOMO)
        46                         -0.2674167              -7.2768 (LUMO)
        47                         -0.2377528              -6.4696
        48                         -0.2255578              -6.1377
        49                         -0.2253181              -6.1312
        50                         -0.1624883              -4.4215
       ...                                ...                  ...
        85                          0.6986325              19.0108
      -------------------------------------------------------------
                  HL-Gap            0.1025742 Eh            2.7912 eV
             Fermi-level           -0.3187038 Eh           -8.6724 eV

 SCC (total)                   0 d,  0 h,  0 min,  0.464 sec
 SCC setup                      ...        0 min,  0.044 sec (  9.446%)
 Dispersion                     ...        0 min,  0.023 sec (  5.032%)
 classical contributions        ...        0 min,  0.009 sec (  1.920%)
 integral evaluation            ...        0 min,  0.040 sec (  8.569%)
 iterations                     ...        0 min,  0.295 sec ( 63.507%)
 molecular gradient             ...        0 min,  0.051 sec ( 11.076%)
 printout                       ...        0 min,  0.002 sec (  0.415%)

         :::::::::::::::::::::::::::::::::::::::::::::::::::::
         ::                     SUMMARY                     ::
         :::::::::::::::::::::::::::::::::::::::::::::::::::::
         :: total energy             -49.063182625495 Eh    ::
         :: total w/o Gsasa/hb       -49.053078395587 Eh    ::
         :: gradient norm              0.094845810434 Eh/a0 ::
         :: HOMO-LUMO gap              2.791185397912 eV    ::
         ::.................................................::
         :: SCC energy               -49.772169038887 Eh    ::
         :: -> isotropic ES            0.036853627705 Eh    ::
         :: -> anisotropic ES          0.004794154820 Eh    ::
         :: -> anisotropic XC          0.040497957638 Eh    ::
         :: -> dispersion             -0.031796336777 Eh    ::
         :: -> Gsolv                  -0.019725701960 Eh    ::
         ::    -> Gelec               -0.009621472052 Eh    ::
         ::    -> Gsasa               -0.007971135044 Eh    ::
         ::    -> Ghb                 -0.003213854562 Eh    ::
         ::    -> Gshift               0.001080759698 Eh    ::
         :: repulsion energy           0.708484320104 Eh    ::
         :: add. restraining           0.000000000000 Eh    ::
         :: total charge               0.000000000000 e     ::
         :::::::::::::::::::::::::::::::::::::::::::::::::::::

      ----------------------------------------------------------- 
     |                   =====================                   |
     |                        A N C O P T                        |
     |                   =====================                   |
     |               Approximate Normal Coordinate               |
     |                Rational Function Optimizer                |
      ----------------------------------------------------------- 

          ...................................................
          :                      SETUP                      :
          :.................................................:
          :   optimization level            normal          :
          :   max. optcycles                   200          :
          :   ANC micro-cycles                  20          :
          :   degrees of freedom                87          :
          :.................................................:
          :   RF solver                   davidson          :
          :   write xtbopt.log                true          :
          :   linear?                        false          :
          :   energy convergence         0.5000000E-05 Eh   :
          :   grad. convergence          0.1000000E-02 Eh/α :
          :   maxmium RF displ.          1.0000000          :
          :   Hlow (freq-cutoff)         0.1000000E-01      :
          :   Hmax (freq-cutoff)         5.0000000          :
          :   S6 in model hess.         20.0000000          :
          ...................................................

generating ANC from model Hessian ...
Using Lindh-Hessian (1995)
 Shifting diagonal of input Hessian by    9.6718553434115388E-003
 Lowest  eigenvalues of input Hessian
    0.000000    0.000000    0.000000    0.000000    0.000000    0.000000
    0.010000    0.010318    0.010788    0.011757    0.012763    0.015350
    0.016004    0.020923    0.022627    0.023782    0.026700    0.031071
 Highest eigenvalues
    1.932773    1.948124    2.032793    2.060565    2.144824    2.173988


........................................................................
.............................. CYCLE    1 ..............................
........................................................................

 iter      E             dE          RMSdq      gap      omega  full diag
   1    -49.7721690 -0.497722E+02  0.122E-04    2.79       0.0  T
   2    -49.7721690 -0.125553E-09  0.771E-05    2.79     233.0  T
   3    -49.7721690 -0.397335E-10  0.521E-05    2.79     344.7  T
     SCC iter.                  ...        0 min,  0.026 sec
     gradient                   ...        0 min,  0.016 sec
 * total energy  :   -49.0631826 Eh     change       -0.7022507E-09 Eh
   gradient norm :     0.0948461 Eh/α   predicted     0.0000000E+00 (-100.00%)
   displ. norm   :     0.2594832 α      lambda       -0.1314243E-01
   maximum displ.:     0.1097059 α      in ANC's #46, #16, #14, ...

........................................................................
.............................. CYCLE    2 ..............................
........................................................................

 iter      E             dE          RMSdq      gap      omega  full diag
   1    -49.8149158 -0.498149E+02  0.220E-01    2.97       0.0  T
   2    -49.8150345 -0.118664E-03  0.122E-01    2.93       1.0  T
   3    -49.8150372 -0.267370E-05  0.414E-02    2.92       1.0  T
   4    -49.8150428 -0.559609E-05  0.116E-02    2.92       1.6  T
   5    -49.8150449 -0.211352E-05  0.492E-03    2.92       3.6  T
   6    -49.8150450 -0.120687E-06  0.153E-03    2.92      11.7  T
   7    -49.8150450 -0.125749E-07  0.646E-04    2.92      27.8  T
   8    -49.8150450 -0.289349E-08  0.301E-04    2.92      59.7  T
     SCC iter.                  ...        0 min,  0.105 sec
     gradient                   ...        0 min,  0.043 sec
 * total energy  :   -49.0718555 Eh     change       -0.8672904E-02 Eh
   gradient norm :     0.0347974 Eh/α   predicted    -0.7015803E-02 ( -19.11%)
   displ. norm   :     0.1851106 α      lambda       -0.2504836E-02
   maximum displ.:     0.0778177 α      in ANC's #14, #16, #6, ...

........................................................................
.............................. CYCLE    3 ..............................
........................................................................

 iter      E             dE          RMSdq      gap      omega  full diag
   1    -49.8331121 -0.498331E+02  0.113E-01    3.03       0.0  T
   2    -49.8331487 -0.365965E-04  0.627E-02    3.02       1.0  T
   3    -49.8331485  0.230317E-06  0.247E-02    3.01       1.0  T
   4    -49.8331504 -0.186720E-05  0.714E-03    3.01       2.5  T
   5    -49.8331515 -0.116143E-05  0.232E-03    3.01       7.8  T
   6    -49.8331516 -0.166334E-07  0.837E-04    3.01      21.5  T
   7    -49.8331516 -0.275855E-08  0.336E-04    3.01      53.4  T
     SCC iter.                  ...        0 min,  0.080 sec
     gradient                   ...        0 min,  0.048 sec
 * total energy  :   -49.0732340 Eh     change       -0.1378464E-02 Eh
   gradient norm :     0.0082183 Eh/α   predicted    -0.1295468E-02 (  -6.02%)
   displ. norm   :     0.0987134 α      lambda       -0.2410776E-03
   maximum displ.:     0.0477898 α      in ANC's #7, #6, #4, ...

........................................................................
.............................. CYCLE    4 ..............................
........................................................................

 iter      E             dE          RMSdq      gap      omega  full diag
   1    -49.8334026 -0.498334E+02  0.354E-02    3.03       0.0  T
   2    -49.8334047 -0.202072E-05  0.203E-02    3.03       1.0  T
   3    -49.8334043  0.337710E-06  0.670E-03    3.03       2.7  T
   4    -49.8334049 -0.527603E-06  0.188E-03    3.03       9.5  T
   5    -49.8334049 -0.842908E-07  0.576E-04    3.03      31.2  T
   6    -49.8334049 -0.377511E-09  0.262E-04    3.03      68.5  T
     SCC iter.                  ...        0 min,  0.088 sec
     gradient                   ...        0 min,  0.035 sec
 * total energy  :   -49.0734229 Eh     change       -0.1888700E-03 Eh
   gradient norm :     0.0045739 Eh/α   predicted    -0.1217152E-03 ( -35.56%)
   displ. norm   :     0.2010547 α      lambda       -0.2908219E-03
   maximum displ.:     0.1114296 α      in ANC's #7, #6, #4, ...

........................................................................
.............................. CYCLE    5 ..............................
........................................................................

 iter      E             dE          RMSdq      gap      omega  full diag
   1    -49.8320670 -0.498321E+02  0.585E-02    3.04       0.0  T
   2    -49.8320699 -0.292736E-05  0.336E-02    3.03       1.0  T
   3    -49.8320689  0.109331E-05  0.888E-03    3.04       2.0  T
   4    -49.8320705 -0.163417E-05  0.232E-03    3.04       7.8  T
   5    -49.8320706 -0.963217E-07  0.912E-04    3.03      19.7  T
   6    -49.8320706 -0.742943E-09  0.335E-04    3.03      53.5  T
     SCC iter.                  ...        0 min,  0.066 sec
     gradient                   ...        0 min,  0.030 sec
 * total energy  :   -49.0736075 Eh     change       -0.1846674E-03 Eh
   gradient norm :     0.0044242 Eh/α   predicted    -0.1512906E-03 ( -18.07%)
   displ. norm   :     0.1357441 α      lambda       -0.9406242E-04
   maximum displ.:     0.0801972 α      in ANC's #7, #4, #6, ...

........................................................................
.............................. CYCLE    6 ..............................
........................................................................

 iter      E             dE          RMSdq      gap      omega  full diag
   1    -49.8316589 -0.498317E+02  0.319E-02    3.03       0.0  T
   2    -49.8316594 -0.482521E-06  0.182E-02    3.03       1.0  T
   3    -49.8316594  0.310156E-07  0.293E-03    3.03       6.1  T
   4    -49.8316595 -0.152310E-06  0.107E-03    3.03      16.8  T
   5    -49.8316596 -0.139253E-07  0.473E-04    3.03      38.0  T
   6    -49.8316596 -0.617661E-09  0.125E-04    3.03     144.1  T
     SCC iter.                  ...        0 min,  0.089 sec
     gradient                   ...        0 min,  0.036 sec
 * total energy  :   -49.0736795 Eh     change       -0.7192203E-04 Eh
   gradient norm :     0.0043974 Eh/α   predicted    -0.4791187E-04 ( -33.38%)
   displ. norm   :     0.1909351 α      lambda       -0.1101320E-03
   maximum displ.:     0.1124213 α      in ANC's #7, #4, #5, ...

........................................................................
.............................. CYCLE    7 ..............................
........................................................................

 iter      E             dE          RMSdq      gap      omega  full diag
   1    -49.8316766 -0.498317E+02  0.431E-02    3.03       0.0  T
   2    -49.8316778 -0.124867E-05  0.245E-02    3.03       1.0  T
   3    -49.8316779 -0.943289E-07  0.373E-03    3.03       4.8  T
   4    -49.8316781 -0.136846E-06  0.124E-03    3.03      14.5  T
   5    -49.8316781 -0.131819E-07  0.590E-04    3.03      30.4  T
   6    -49.8316781 -0.124476E-08  0.173E-04    3.03     104.1  T
     SCC iter.                  ...        0 min,  0.072 sec
     gradient                   ...        0 min,  0.044 sec
 * total energy  :   -49.0737540 Eh     change       -0.7456327E-04 Eh
   gradient norm :     0.0030380 Eh/α   predicted    -0.5707810E-04 ( -23.45%)
   displ. norm   :     0.1113134 α      lambda       -0.4609158E-04
   maximum displ.:     0.0615828 α      in ANC's #7, #4, #5, ...

........................................................................
.............................. CYCLE    8 ..............................
........................................................................

 iter      E             dE          RMSdq      gap      omega  full diag
   1    -49.8322946 -0.498323E+02  0.280E-02    3.03       0.0  T
   2    -49.8322952 -0.609407E-06  0.160E-02    3.02       1.1  T
   3    -49.8322951  0.865389E-07  0.332E-03    3.02       5.4  T
   4    -49.8322953 -0.194258E-06  0.893E-04    3.02      20.1  T
   5    -49.8322953 -0.122072E-07  0.408E-04    3.02      44.0  T
     SCC iter.                  ...        0 min,  0.081 sec
     gradient                   ...        0 min,  0.044 sec
 * total energy  :   -49.0737856 Eh     change       -0.3154122E-04 Eh
   gradient norm :     0.0019893 Eh/α   predicted    -0.2333154E-04 ( -26.03%)
   displ. norm   :     0.0946771 α      lambda       -0.1979023E-04
   maximum displ.:     0.0528270 α      in ANC's #4, #5, #7, ...

........................................................................
.............................. CYCLE    9 ..............................
........................................................................

 iter      E             dE          RMSdq      gap      omega  full diag
   1    -49.8330813 -0.498331E+02  0.289E-02    3.03       0.0  T
   2    -49.8330818 -0.427299E-06  0.167E-02    3.03       1.1  T
   3    -49.8330816  0.163090E-06  0.331E-03    3.03       5.4  T
   4    -49.8330819 -0.261621E-06  0.730E-04    3.03      24.6  T
   5    -49.8330819 -0.586260E-08  0.352E-04    3.03      51.0  T
     SCC iter.                  ...        0 min,  0.055 sec
     gradient                   ...        0 min,  0.030 sec
 * total energy  :   -49.0738007 Eh     change       -0.1517379E-04 Eh
   gradient norm :     0.0014971 Eh/α   predicted    -0.9936297E-05 ( -34.52%)
   displ. norm   :     0.0221729 α      lambda       -0.4503755E-05
   maximum displ.:     0.0146736 α      in ANC's #1, #6, #7, ...

........................................................................
.............................. CYCLE   10 ..............................
........................................................................

 iter      E             dE          RMSdq      gap      omega  full diag
   1    -49.8329547 -0.498330E+02  0.752E-03    3.03       0.0  T
   2    -49.8329548 -0.811806E-07  0.435E-03    3.03       4.1  T
   3    -49.8329548  0.961466E-08  0.127E-03    3.03      14.2  T
   4    -49.8329548 -0.168436E-07  0.298E-04    3.03      60.3  T
   5    -49.8329548 -0.203769E-08  0.102E-04    3.03     176.9  T
     SCC iter.                  ...        0 min,  0.111 sec
     gradient                   ...        0 min,  0.098 sec
 * total energy  :   -49.0738058 Eh     change       -0.5063667E-05 Eh
   gradient norm :     0.0006133 Eh/α   predicted    -0.2253800E-05 ( -55.49%)
   displ. norm   :     0.0386882 α      lambda       -0.4141803E-05
   maximum displ.:     0.0270397 α      in ANC's #1, #6, #2, ...

........................................................................
.............................. CYCLE   11 ..............................
........................................................................

 iter      E             dE          RMSdq      gap      omega  full diag
   1    -49.8327469 -0.498327E+02  0.104E-02    3.03       0.0  T
   2    -49.8327470 -0.960149E-07  0.605E-03    3.03       3.0  T
   3    -49.8327470  0.211176E-07  0.145E-03    3.03      12.4  T
   4    -49.8327470 -0.340897E-07  0.322E-04    3.03      55.7  T
   5    -49.8327470 -0.209985E-08  0.127E-04    3.03     141.6  T
     SCC iter.                  ...        0 min,  0.077 sec
     gradient                   ...        0 min,  0.043 sec
 * total energy  :   -49.0738102 Eh     change       -0.4440596E-05 Eh
   gradient norm :     0.0006905 Eh/α   predicted    -0.2076719E-05 ( -53.23%)
   displ. norm   :     0.0423741 α      lambda       -0.3104338E-05
   maximum displ.:     0.0305845 α      in ANC's #1, #2, #3, ...

   *** GEOMETRY OPTIMIZATION CONVERGED AFTER 11 ITERATIONS ***

------------------------------------------------------------------------
 total energy gain   :        -0.0106276 Eh       -6.6689 kcal/mol
 total RMSD          :         0.1849749 a0        0.0979 Å
 total power (kW/mol):        -2.5366170 (step)  -15.9838 (real)
------------------------------------------------------------------------

 ANCopt (total)                0 d,  0 h,  0 min,  1.746 sec
 optimizer setup                ...        0 min,  0.001 sec (  0.054%)
 model hessian                  ...        0 min,  0.017 sec (  0.985%)
 ANC generation                 ...        0 min,  0.002 sec (  0.136%)
 coordinate transformation      ...        0 min,  0.000 sec (  0.016%)
 single point calculation       ...        0 min,  1.669 sec ( 95.584%)
 optimization log               ...        0 min,  0.011 sec (  0.655%)
 hessian update                 ...        0 min,  0.028 sec (  1.611%)
 rational function              ...        0 min,  0.010 sec (  0.560%)

================
 final structure:
================
 xtb: 6.6.1 (8d0f1dd)
          10302302073D

 31 33  0     0  0            999 V2000
    2.3884    1.6100    1.7366 C   0  0  0  0  0  0  0  0  0  0  0  0
    2.7933    0.3440    2.1255 C   0  0  0  0  0  0  0  0  0  0  0  0
    2.7831   -0.6972    1.2153 C   0  0  0  0  0  0  0  0  0  0  0  0
    2.3754   -0.4863   -0.0960 C   0  0  0  0  0  0  0  0  0  0  0  0
    2.3096   -1.6324   -1.0666 C   0  0  0  0  0  0  0  0  0  0  0  0
    0.9903   -2.4030   -0.8927 C   0  0  0  0  0  0  0  0  0  0  0  0
   -0.1223   -1.5281   -1.1130 N   0  0  0  0  0  0  0  0  0  0  0  0
   -0.5656   -1.2106   -2.2975 N   0  0  0  0  0  0  0  0  0  0  0  0
   -1.5234   -0.3576   -2.1368 N   0  0  0  0  0  0  0  0  0  0  0  0
   -1.6422   -0.1638   -0.8001 C   0  0  0  0  0  0  0  0  0  0  0  0
   -2.5980    0.7190   -0.2148 C   0  0  0  0  0  0  0  0  0  0  0  0
   -2.8059    1.0703    1.1066 C   0  0  0  0  0  0  0  0  0  0  0  0
   -3.8721    1.9787    1.1243 C   0  0  0  0  0  0  0  0  0  0  0  0
   -4.2819    2.1545   -0.1766 C   0  0  0  0  0  0  0  0  0  0  0  0
   -3.5079    1.3923   -0.9772 N   0  0  0  0  0  0  0  0  0  0  0  0
   -0.7544   -0.9093   -0.1392 N   0  0  0  0  0  0  0  0  0  0  0  0
    1.9753    0.7877   -0.4774 C   0  0  0  0  0  0  0  0  0  0  0  0
    1.9797    1.8302    0.4326 C   0  0  0  0  0  0  0  0  0  0  0  0
    2.3912    2.4232    2.4465 H   0  0  0  0  0  0  0  0  0  0  0  0
    3.1148    0.1682    3.1410 H   0  0  0  0  0  0  0  0  0  0  0  0
    3.0966   -1.6839    1.5229 H   0  0  0  0  0  0  0  0  0  0  0  0
    2.3689   -1.2624   -2.0910 H   0  0  0  0  0  0  0  0  0  0  0  0
    3.1310   -2.3265   -0.8919 H   0  0  0  0  0  0  0  0  0  0  0  0
    0.9279   -3.2145   -1.6180 H   0  0  0  0  0  0  0  0  0  0  0  0
    0.9012   -2.7824    0.1255 H   0  0  0  0  0  0  0  0  0  0  0  0
   -2.2442    0.7089    1.9439 H   0  0  0  0  0  0  0  0  0  0  0  0
   -4.2909    2.4494    1.9910 H   0  0  0  0  0  0  0  0  0  0  0  0
   -5.0671    2.7677   -0.5708 H   0  0  0  0  0  0  0  0  0  0  0  0
   -3.5686    1.3129   -1.9793 H   0  0  0  0  0  0  0  0  0  0  0  0
    1.6569    0.9671   -1.4959 H   0  0  0  0  0  0  0  0  0  0  0  0
    1.6611    2.8145    0.1227 H   0  0  0  0  0  0  0  0  0  0  0  0
  1  2  2  0  0  0  0
  1 19  1  0  0  0  0
  2  3  1  0  0  0  0
  2 20  1  0  0  0  0
  3  4  2  0  0  0  0
  3 21  1  0  0  0  0
  4  5  1  0  0  0  0
  4 17  1  0  0  0  0
  5  6  1  0  0  0  0
  5 22  1  0  0  0  0
  5 23  1  0  0  0  0
  6  7  1  0  0  0  0
  6 24  1  0  0  0  0
  6 25  1  0  0  0  0
  7  8  1  0  0  0  0
  8  9  2  0  0  0  0
  9 10  1  0  0  0  0
 10 11  1  0  0  0  0
 10 16  2  0  0  0  0
 11 12  2  0  0  0  0
 12 13  1  0  0  0  0
 12 26  1  0  0  0  0
 13 14  2  0  0  0  0
 13 27  1  0  0  0  0
 14 15  1  0  0  0  0
 14 28  1  0  0  0  0
 15 11  1  0  0  0  0
 15 29  1  0  0  0  0
 16  7  1  0  0  0  0
 17 18  2  0  0  0  0
 17 30  1  0  0  0  0
 18  1  1  0  0  0  0
 18 31  1  0  0  0  0
M  END
$$$$

 Bond Distances (Angstroems)
 ---------------------------
C1-C2=1.3848         C1-C18=1.3842        C1-H19=1.0795        C2-C1=1.3848         C2-C3=1.3830         C2-H20=1.0796        
C3-C2=1.3830         C3-C4=1.3893         C3-H21=1.0800        C4-C3=1.3893         C4-C5=1.5033         C4-C17=1.3887        
C5-C4=1.5033         C5-C6=1.5377         C5-H22=1.0908        C5-H23=1.0895        C6-C5=1.5377         C6-N7=1.4324         
C6-H24=1.0902        C6-H25=1.0902        N7-C6=1.4324         N7-N8=1.3040         N7-N16=1.3156        N8-N7=1.3040         
N8-N9=1.2926         N9-N8=1.2926         N9-C10=1.3558        C10-N9=1.3558        C10-C11=1.4267       C10-N16=1.3345       
C11-C10=1.4267       C11-C12=1.3830       C11-N15=1.3647       C12-C11=1.3830       C12-C13=1.4008       C12-H26=1.0711       
C13-C12=1.4008       C13-C14=1.3753       C13-H27=1.0715       C14-C13=1.3753       C14-N15=1.3494       C14-H28=1.0714       
N15-C11=1.3647       N15-C14=1.3494       N15-H29=1.0071       N16-N7=1.3156        N16-C10=1.3345       C17-C4=1.3887        
C17-C18=1.3838       C17-H30=1.0822       C18-C1=1.3842        C18-C17=1.3838       C18-H31=1.0800       H19-C1=1.0795        
H20-C2=1.0796        H21-C3=1.0800        H22-C5=1.0908        H23-C5=1.0895        H24-C6=1.0902        H25-C6=1.0902        
H26-C12=1.0711       H27-C13=1.0715       H28-C14=1.0714       H29-N15=1.0071       H30-C17=1.0822       H31-C18=1.0800       
 C  H  Rav=1.0813 sigma=0.0072  Rmin=1.0711  Rmax=1.0908    12
 C  C  Rav=1.4117 sigma=0.0507  Rmin=1.3753  Rmax=1.5377    12
 N  H  Rav=1.0071 sigma=0.0000  Rmin=1.0071  Rmax=1.0071     1
 N  C  Rav=1.3674 sigma=0.0340  Rmin=1.3345  Rmax=1.4324     5
 N  N  Rav=1.3041 sigma=0.0094  Rmin=1.2926  Rmax=1.3156     3

 selected bond angles (degree)
 --------------------
C18-C1-C2=119.76               H19-C1-C2=120.21               H19-C1-C18=120.03              C3-C2-C1=120.09                
H20-C2-C1=120.01               H20-C2-C3=119.91               C4-C3-C2=120.60                H21-C3-C2=119.89               
H21-C3-C4=119.52               C5-C4-C3=120.43                C17-C4-C3=118.88               C17-C4-C5=120.63               
C6-C5-C4=110.28                H22-C5-C4=110.20               H22-C5-C6=108.83               H23-C5-C4=110.44               
H23-C5-C6=108.03               H23-C5-H22=109.00              N7-C6-C5=110.05                H24-C6-C5=110.30               
H24-C6-N7=107.93               H25-C6-C5=110.49               H25-C6-N7=107.03               H25-C6-H24=110.95              
N8-N7-C6=123.54                N16-N7-C6=123.13               N16-N7-N8=113.24               N9-N8-N7=107.44                
C10-N9-N8=106.37               C11-C10-N9=123.48              N16-C10-N9=110.50              N16-C10-C11=126.03             

 selected dihedral angles (degree)
 ---------------------------------
C3-C2-C1-C18=359.70           C3-C2-C1-H19=179.72           H20-C2-C1-C18=179.87          H20-C2-C1-H19=359.88          
C4-C3-C2-C1=  0.33            C4-C3-C2-H20=180.17           H21-C3-C2-C1=180.19           H21-C3-C2-H20=  0.02          
C5-C4-C3-C2=182.63            C5-C4-C3-H21=  2.78           C17-C4-C3-C2=359.87           C17-C4-C3-H21=180.02          
C6-C5-C4-C3= 82.43            C6-C5-C4-C17=265.24           H22-C5-C4-C3=202.61           H22-C5-C4-C17= 25.42          
H23-C5-C4-C3=323.10           H23-C5-C4-C17=145.91          N7-C6-C5-C4= 59.20            N7-C6-C5-H22=298.20           
N7-C6-C5-H23=179.98           H24-C6-C5-C4=178.18           H24-C6-C5-H22= 57.17          H24-C6-C5-H23=298.96          
H25-C6-C5-C4=301.22           H25-C6-C5-H22=180.21          H25-C6-C5-H23= 62.00          N8-N7-C6-C5= 80.99            
N8-N7-C6-H24=320.57           N8-N7-C6-H25=201.10           N16-N7-C6-C5=264.69           N16-N7-C6-H24=144.27          
N16-N7-C6-H25= 24.80          N9-N8-N7-C6=183.27            N9-N8-N7-N16=359.90           C10-N9-N8-N7=  0.24           
C11-C10-N9-N8=179.88          N16-C10-N9-N8=359.69          
           -------------------------------------------------
          |                Final Singlepoint                |
           -------------------------------------------------

          ...................................................
          :                      SETUP                      :
          :.................................................:
          :  # basis functions                  85          :
          :  # atomic orbitals                  85          :
          :  # shells                           49          :
          :  # electrons                        90          :
          :  max. iterations                   250          :
          :  Hamiltonian                  GFN2-xTB          :
          :  restarted?                      false          :
          :  GBSA solvation                   true          :
          :  PC potential                    false          :
          :  electronic temp.          300.0000000     K    :
          :  accuracy                    1.0000000          :
          :  -> integral cutoff          0.2500000E+02      :
          :  -> integral neglect         0.1000000E-07      :
          :  -> SCF convergence          0.1000000E-05 Eh   :
          :  -> wf. convergence          0.1000000E-03 e    :
          :  Broyden damping             0.4000000          :
          ...................................................

 iter      E             dE          RMSdq      gap      omega  full diag
   1    -49.8327470 -0.498327E+02  0.586E-05    3.03       0.0  T
   2    -49.8327470 -0.180549E-10  0.371E-05    3.03     484.1  T
   3    -49.8327470 -0.103242E-10  0.222E-05    3.03     808.2  T

   *** convergence criteria satisfied after 3 iterations ***

         #    Occupation            Energy/Eh            Energy/eV
      -------------------------------------------------------------
         1        2.0000           -0.7380990             -20.0847
       ...           ...                  ...                  ...
        39        2.0000           -0.4211726             -11.4607
        40        2.0000           -0.4163304             -11.3289
        41        2.0000           -0.4037151             -10.9856
        42        2.0000           -0.4011116             -10.9148
        43        2.0000           -0.3990956             -10.8599
        44        2.0000           -0.3982374             -10.8366
        45        2.0000           -0.3717496             -10.1158 (HOMO)
        46                         -0.2604291              -7.0866 (LUMO)
        47                         -0.2392855              -6.5113
        48                         -0.2225528              -6.0560
        49                         -0.2221108              -6.0439
        50                         -0.1633150              -4.4440
       ...                                ...                  ...
        85                          0.7033304              19.1386
      -------------------------------------------------------------
                  HL-Gap            0.1113205 Eh            3.0292 eV
             Fermi-level           -0.3160893 Eh           -8.6012 eV

 SCC (total)                   0 d,  0 h,  0 min,  0.160 sec
 SCC setup                      ...        0 min,  0.008 sec (  4.995%)
 Dispersion                     ...        0 min,  0.008 sec (  5.251%)
 classical contributions        ...        0 min,  0.006 sec (  3.954%)
 integral evaluation            ...        0 min,  0.020 sec ( 12.360%)
 iterations                     ...        0 min,  0.060 sec ( 37.429%)
 molecular gradient             ...        0 min,  0.057 sec ( 35.731%)
 printout                       ...        0 min,  0.000 sec (  0.241%)

         :::::::::::::::::::::::::::::::::::::::::::::::::::::
         ::                     SUMMARY                     ::
         :::::::::::::::::::::::::::::::::::::::::::::::::::::
         :: total energy             -49.073810235929 Eh    ::
         :: total w/o Gsasa/hb       -49.064137645210 Eh    ::
         :: gradient norm              0.000690912966 Eh/a0 ::
         :: HOMO-LUMO gap              3.029185557983 eV    ::
         ::.................................................::
         :: SCC energy               -49.832746997603 Eh    ::
         :: -> isotropic ES            0.035983037639 Eh    ::
         :: -> anisotropic ES          0.004015265101 Eh    ::
         :: -> anisotropic XC          0.039327350229 Eh    ::
         :: -> dispersion             -0.032507562607 Eh    ::
         :: -> Gsolv                  -0.018393541703 Eh    ::
         ::    -> Gelec               -0.008720950984 Eh    ::
         ::    -> Gsasa               -0.007758644732 Eh    ::
         ::    -> Ghb                 -0.002994705685 Eh    ::
         ::    -> Gshift               0.001080759698 Eh    ::
         :: repulsion energy           0.758435233859 Eh    ::
         :: add. restraining           0.000000000000 Eh    ::
         :: total charge              -0.000000000000 e     ::
         :::::::::::::::::::::::::::::::::::::::::::::::::::::

           ------------------------------------------------- 
          |                Numerical Hessian                |
           ------------------------------------------------- 
step length          :   0.00500
SCC accuracy         :   0.30000
Hessian scale factor :   1.00000
frozen atoms in %    :   0.00000    0
RMS gradient         :   0.00069
estimated CPU  time      0.43 min
estimated wall time      0.12 min

writing file <hessian>.

 projected vibrational frequencies (cm⁻¹)
eigval :       -0.00    -0.00    -0.00     0.00     0.00     0.00
eigval :        6.60    18.68    32.29    61.23    79.54    96.01
eigval :      128.86   135.01   235.31   293.71   335.50   352.06
eigval :      372.89   380.96   430.38   462.91   484.79   552.28
eigval :      561.39   591.59   603.61   634.86   670.57   683.28
eigval :      712.71   738.30   753.73   774.67   785.38   816.80
eigval :      841.28   842.78   877.44   889.43   900.63   921.78
eigval :      928.52   932.68   971.40   993.73  1029.06  1035.04
eigval :     1060.84  1064.52  1085.25  1094.08  1109.89  1119.60
eigval :     1131.85  1170.58  1180.50  1182.78  1200.41  1227.87
eigval :     1238.13  1244.21  1284.49  1294.58  1305.02  1315.05
eigval :     1327.07  1359.07  1383.14  1403.95  1404.46  1420.78
eigval :     1438.89  1441.00  1461.46  1481.55  1492.46  1593.41
eigval :     1596.87  1606.48  2996.72  2997.84  3008.43  3011.47
eigval :     3052.22  3073.20  3075.89  3082.66  3094.96  3162.85
eigval :     3172.95  3182.53  3470.58
           -------------------------------------------------
          |                Property Printout                |
           -------------------------------------------------

    * Orbital Energies and Occupations

         #    Occupation            Energy/Eh            Energy/eV
      -------------------------------------------------------------
         1        2.0000           -0.7380990             -20.0847
       ...           ...                  ...                  ...
        33        2.0000           -0.4613084             -12.5528
        34        2.0000           -0.4568014             -12.4302
        35        2.0000           -0.4518872             -12.2965
        36        2.0000           -0.4468028             -12.1581
        37        2.0000           -0.4441166             -12.0850
        38        2.0000           -0.4239365             -11.5359
        39        2.0000           -0.4211725             -11.4607
        40        2.0000           -0.4163304             -11.3289
        41        2.0000           -0.4037151             -10.9856
        42        2.0000           -0.4011116             -10.9148
        43        2.0000           -0.3990956             -10.8599
        44        2.0000           -0.3982374             -10.8366
        45        2.0000           -0.3717496             -10.1158 (HOMO)
        46                         -0.2604291              -7.0866 (LUMO)
        47                         -0.2392856              -6.5113
        48                         -0.2225527              -6.0560
        49                         -0.2221107              -6.0439
        50                         -0.1633151              -4.4440
        51                         -0.1161594              -3.1609
        52                         -0.0942558              -2.5648
        53                         -0.0054642              -0.1487
        54                          0.0376495               1.0245
        55                          0.0835014               2.2722
        56                          0.1010091               2.7486
       ...                                ...                  ...
        85                          0.7033303              19.1386
      -------------------------------------------------------------
                  HL-Gap            0.1113206 Eh            3.0292 eV
             Fermi-level           -0.3160893 Eh           -8.6012 eV

     #   Z          covCN         q      C6AA      α(0)
     1   6 C        2.921    -0.036    28.904     8.816
     2   6 C        2.919    -0.034    28.858     8.809
     3   6 C        2.925    -0.041    29.028     8.836
     4   6 C        2.971     0.011    27.756     8.642
     5   6 C        3.810    -0.075    21.929     6.666
     6   6 C        3.745    -0.032    21.219     6.571
     7   7 N        3.236     0.209    17.795     6.265
     8   7 N        2.171    -0.152    24.782     7.387
     9   7 N        2.059    -0.257    27.413     7.767
    10   6 C        3.195     0.145    24.367     8.048
    11   6 C        3.104     0.010    27.654     8.617
    12   6 C        3.052    -0.065    29.572     8.918
    13   6 C        3.057    -0.070    29.674     8.933
    14   6 C        3.047    -0.007    28.161     8.704
    15   7 N        2.812    -0.087    22.940     7.114
    16   7 N        1.983    -0.288    28.281     7.887
    17   6 C        2.925    -0.037    28.927     8.820
    18   6 C        2.919    -0.034    28.855     8.809
    19   1 H        0.926     0.036     2.504     2.474
    20   1 H        0.926     0.041     2.440     2.443
    21   1 H        0.926     0.045     2.379     2.412
    22   1 H        0.924     0.062     2.174     2.306
    23   1 H        0.925     0.079     1.989     2.205
    24   1 H        0.925     0.098     1.806     2.102
    25   1 H        0.925     0.095     1.829     2.115
    26   1 H        0.926     0.032     2.554     2.499
    27   1 H        0.926     0.035     2.511     2.478
    28   1 H        0.926     0.055     2.260     2.351
    29   1 H        0.860     0.214     1.039     1.597
    30   1 H        0.925     0.019     2.749     2.593
    31   1 H        0.926     0.030     2.581     2.512

 Mol. C6AA /au·bohr⁶  :      12427.541483
 Mol. C8AA /au·bohr⁸  :     298474.547921
 Mol. α(0) /au        :        175.694891


Wiberg/Mayer (AO) data.
largest (>0.10) Wiberg bond orders for each atom

 ---------------------------------------------------------------------------
     #   Z sym  total        # sym  WBO       # sym  WBO       # sym  WBO
 ---------------------------------------------------------------------------
     1   6 C    3.991 --    18 C    1.441     2 C    1.436    19 H    0.971
                             4 C    0.110
     2   6 C    3.992 --     3 C    1.448     1 C    1.436    20 H    0.970
                            17 C    0.111
     3   6 C    3.991 --     2 C    1.448     4 C    1.411    21 H    0.968
                            18 C    0.112
     4   6 C    3.989 --    17 C    1.416     3 C    1.411     5 C    1.012
                             1 C    0.110
     5   6 C    3.987 --     4 C    1.012    22 H    0.972     6 C    0.968
                            23 H    0.964
     6   6 C    3.948 --     7 N    0.977     5 C    0.968    25 H    0.965
                            24 H    0.960
     7   7 N    3.756 --     8 N    1.318    16 N    1.254     6 C    0.977
                             9 N    0.129
     8   7 N    3.017 --     9 N    1.425     7 N    1.318    16 N    0.178
     9   7 N    3.013 --     8 N    1.425    10 C    1.322     7 N    0.129
    10   6 C    3.969 --    16 N    1.391     9 N    1.322    11 C    1.110
    11   6 C    3.948 --    12 C    1.438    15 N    1.199    10 C    1.110
                            14 C    0.117
    12   6 C    3.983 --    11 C    1.438    13 C    1.380    26 H    0.975
    13   6 C    3.979 --    14 C    1.504    12 C    1.380    27 H    0.974
    14   6 C    3.944 --    13 C    1.504    15 N    1.274    28 H    0.969
                            11 C    0.117
    15   7 N    3.597 --    14 C    1.274    11 C    1.199    29 H    0.926
    16   7 N    2.981 --    10 C    1.391     7 N    1.254     8 N    0.178
    17   6 C    3.993 --    18 C    1.442     4 C    1.416    30 H    0.970
                             2 C    0.111
    18   6 C    3.992 --    17 C    1.442     1 C    1.441    31 H    0.971
                             3 C    0.112
    19   1 H    0.998 --     1 C    0.971
    20   1 H    0.998 --     2 C    0.970
    21   1 H    0.998 --     3 C    0.968
    22   1 H    0.996 --     5 C    0.972
    23   1 H    0.993 --     5 C    0.964
    24   1 H    0.989 --     6 C    0.960
    25   1 H    0.991 --     6 C    0.965
    26   1 H    0.999 --    12 C    0.975
    27   1 H    0.998 --    13 C    0.974
    28   1 H    0.997 --    14 C    0.969
    29   1 H    0.954 --    15 N    0.926
    30   1 H    1.000 --    17 C    0.970
    31   1 H    0.999 --    18 C    0.971
 ---------------------------------------------------------------------------

Topologies differ in bond orders
Writing corrected topology to xtbtopo.sdf

molecular dipole:
                 x           y           z       tot (Debye)
 q only:        0.601      -0.494       0.074
   full:        0.503      -0.448       0.084       1.724
molecular quadrupole (traceless):
                xx          xy          yy          xz          yz          zz
 q only:        5.060     -12.883       4.328       2.272      -1.161      -9.388
  q+dip:        1.366     -13.625       6.551       4.866      -2.267      -7.917
   full:        4.377     -11.379       6.506       3.542      -2.413     -10.883

           -------------------------------------------------
          |                Geometry Summary                 |
           -------------------------------------------------

      molecular mass/u    :      239.2763125
   center of mass at/Å    :       -0.2415606       0.1134851      -0.1772927
  moments of inertia/u·Å² :        0.7315866E+03   0.1652859E+04   0.2125614E+04
rotational constants/cm⁻¹ :        0.2304257E-01   0.1019907E-01   0.7930712E-02

 * 32 selected distances

     #   Z          #   Z                                           value/Å
     1   6 C        2   6 C                                       1.3848355
     2   6 C        3   6 C                                       1.3829661
     3   6 C        4   6 C                                       1.3893366
     5   6 C        6   6 C                                       1.5377412 (max)
     6   6 C        7   7 N                                       1.4323986
     7   7 N        8   7 N                                       1.3039693
     8   7 N        9   7 N                                       1.2926161
     9   7 N       10   6 C                                       1.3558375
    10   6 C       11   6 C                                       1.4267142
    11   6 C       12   6 C                                       1.3830394
    12   6 C       13   6 C                                       1.4007681
    13   6 C       14   6 C                                       1.3752925
    11   6 C       15   7 N                                       1.3646905
    14   6 C       15   7 N                                       1.3494467
     7   7 N       16   7 N                                       1.3156252
    10   6 C       16   7 N                                       1.3344865
     4   6 C       17   6 C                                       1.3886504
     1   6 C       18   6 C                                       1.3841659
    17   6 C       18   6 C                                       1.3838293
     1   6 C       19   1 H                                       1.0794754
     2   6 C       20   1 H                                       1.0796281
     3   6 C       21   1 H                                       1.0800493
     5   6 C       22   1 H                                       1.0908131
     5   6 C       23   1 H                                       1.0894625
     6   6 C       24   1 H                                       1.0901969
     6   6 C       25   1 H                                       1.0901825
    12   6 C       26   1 H                                       1.0710729
    13   6 C       27   1 H                                       1.0714859
    14   6 C       28   1 H                                       1.0713732
    15   7 N       29   1 H                                       1.0071083 (min)
    17   6 C       30   1 H                                       1.0821738
    18   6 C       31   1 H                                       1.0800357

 * 5 distinct bonds (by element types)

   Z      Z             #   av. dist./Å        max./Å        min./Å
   1 H    6 C          12     1.0813291     1.0908131     1.0710729
   6 C    6 C          11     1.4033945     1.5377412     1.3752925
   1 H    7 N           1     1.0071083     1.0071083     1.0071083
   6 C    7 N           5     1.3673719     1.4323986     1.3344865
   7 N    7 N           3     1.3040702     1.3156252     1.2926161

           -------------------------------------------------
          |               Frequency Printout                |
           -------------------------------------------------
 projected vibrational frequencies (cm⁻¹)
eigval :       -0.00    -0.00    -0.00     0.00     0.00     0.00
eigval :        6.60    18.68    32.29    61.23    79.54    96.01
eigval :      128.86   135.01   235.31   293.71   335.50   352.06
eigval :      372.89   380.96   430.38   462.91   484.79   552.28
eigval :      561.39   591.59   603.61   634.86   670.57   683.28
eigval :      712.71   738.30   753.73   774.67   785.38   816.80
eigval :      841.28   842.78   877.44   889.43   900.63   921.78
eigval :      928.52   932.68   971.40   993.73  1029.06  1035.04
eigval :     1060.84  1064.52  1085.25  1094.08  1109.89  1119.60
eigval :     1131.85  1170.58  1180.50  1182.78  1200.41  1227.87
eigval :     1238.13  1244.21  1284.49  1294.58  1305.02  1315.05
eigval :     1327.07  1359.07  1383.14  1403.95  1404.46  1420.78
eigval :     1438.89  1441.00  1461.46  1481.55  1492.46  1593.41
eigval :     1596.87  1606.48  2996.72  2997.84  3008.43  3011.47
eigval :     3052.22  3073.20  3075.89  3082.66  3094.96  3162.85
eigval :     3172.95  3182.53  3470.58
 reduced masses (amu)
   1: 11.08   2: 12.19   3: 11.56   4: 11.67   5: 12.08   6: 11.39   7: 11.04   8: 10.77
   9: 10.24  10: 11.06  11: 11.03  12: 12.39  13: 10.24  14: 11.03  15: 11.55  16:  9.79
  17: 10.46  18:  7.98  19:  8.87  20: 11.99  21: 11.40  22: 11.71  23: 10.33  24:  9.84
  25: 10.34  26: 11.12  27: 10.13  28:  4.25  29:  9.46  30: 13.25  31: 10.29  32: 12.71
  33:  4.20  34:  2.85  35:  9.52  36:  3.10  37:  3.26  38: 11.15  39:  3.32  40: 10.74
  41:  4.10  42:  6.95  43:  4.41  44:  3.35  45:  8.57  46:  9.22  47:  8.53  48:  7.37
  49:  5.62  50: 10.54  51:  6.80  52:  4.23  53:  4.85  54:  6.80  55:  3.73  56:  3.96
  57:  1.29  58:  4.09  59:  1.81  60:  7.73  61: 12.28  62: 11.86  63:  6.16  64:  6.31
  65:  5.09  66:  7.89  67: 10.80  68: 11.99  69: 12.58  70:  3.58  71: 10.62  72: 11.56
  73: 11.59  74:  8.73  75:  2.20  76:  9.13  77: 11.67  78: 11.48  79: 11.79  80: 11.49
  81:  1.64  82:  1.74  83:  1.67  84:  1.92  85:  1.80  86:  1.75  87:  1.81  88:  1.86
  89:  1.92  90:  1.80  91:  1.89  92:  1.97  93:  1.89
 IR intensities (km·mol⁻¹)
   1:  0.01   2:  0.00   3:  0.06   4:  0.01   5:  0.03   6:  0.07   7:  0.02   8:  0.01
   9:  0.21  10:  5.82  11:  2.04  12:  1.31  13:  3.35  14:  0.21  15:  0.02  16:  4.62
  17:  1.56  18:  0.02  19:  0.08  20:  1.19  21:  0.61  22:  0.86  23:  2.93  24:  9.27
  25: 23.06  26:  0.02  27: 14.84  28: 47.61  29:  4.74  30:  2.90  31:  0.69  32: 19.23
  33: 21.25  34: 19.43  35:  2.01  36:  9.25  37:  0.52  38:  4.15  39:  0.37  40:  9.59
Molecule has no symmetry elements
It seems to be the C1 point group
  41:  1.01  42: 10.10  43:  1.24  44:  0.34  45: 12.08  46:  6.94  47:  1.35  48: 18.68
  49: 24.14  50: 76.77  51:  0.39  52: 54.69  53: 14.28  54:  3.91  55:  6.08  56: 18.12
  57:  0.05  58: 12.29  59:  1.74  60:  5.85  61: 12.46  62: 16.02  63:  5.43  64: 11.48
  65: 11.64  66: 22.49  67:  0.47  68:159.90  69: 47.85  70: 16.05  71: 44.48  72: 11.31
  73:  0.36  74:  1.56  75:  2.51  76:  0.64  77:137.90  78:  0.09  79:291.06  80:  6.37
  81: 13.19  82: 11.76  83: 41.68  84: 22.00  85: 87.90  86: 19.75  87: 57.50  88:195.03
  89: 82.60  90: 22.71  91: 57.50  92: 58.69  93: 87.35
 Raman intensities (amu)
   1:  0.00   2:  0.00   3:  0.00   4:  0.00   5:  0.00   6:  0.00   7:  0.00   8:  0.00
   9:  0.00  10:  0.00  11:  0.00  12:  0.00  13:  0.00  14:  0.00  15:  0.00  16:  0.00
  17:  0.00  18:  0.00  19:  0.00  20:  0.00  21:  0.00  22:  0.00  23:  0.00  24:  0.00
  25:  0.00  26:  0.00  27:  0.00  28:  0.00  29:  0.00  30:  0.00  31:  0.00  32:  0.00
  33:  0.00  34:  0.00  35:  0.00  36:  0.00  37:  0.00  38:  0.00  39:  0.00  40:  0.00
  41:  0.00  42:  0.00  43:  0.00  44:  0.00  45:  0.00  46:  0.00  47:  0.00  48:  0.00
  49:  0.00  50:  0.00  51:  0.00  52:  0.00  53:  0.00  54:  0.00  55:  0.00  56:  0.00
  57:  0.00  58:  0.00  59:  0.00  60:  0.00  61:  0.00  62:  0.00  63:  0.00  64:  0.00
  65:  0.00  66:  0.00  67:  0.00  68:  0.00  69:  0.00  70:  0.00  71:  0.00  72:  0.00
  73:  0.00  74:  0.00  75:  0.00  76:  0.00  77:  0.00  78:  0.00  79:  0.00  80:  0.00
  81:  0.00  82:  0.00  83:  0.00  84:  0.00  85:  0.00  86:  0.00  87:  0.00  88:  0.00
  89:  0.00  90:  0.00  91:  0.00  92:  0.00  93:  0.00
 output can be read by thermo (or use thermo option).
 writing <g98.out> molden fake output.
 recommended (thermochemical) frequency scaling factor: 1.0
           -------------------------------------------------
          |             Thermodynamic Functions             |
           -------------------------------------------------

c1  symmetry found (for desy threshold:  0.10E+00) used in thermo

          ...................................................
          :                      SETUP                      :
          :.................................................:
          :  # frequencies                          87      :
          :  # imaginary freq.                       0      :
          :  linear?                             false      :
          :  only rotor calc.                    false      :
          :  symmetry                               c1      :
          :  rotational number                       1      :
          :  scaling factor                  1.0000000      :
          :  rotor cutoff                   50.0000000 cm⁻¹ :
          :  imag. cutoff                  -20.0000000 cm⁻¹ :
          :.................................................:

    mode    ω/cm⁻¹     T·S(HO)/kcal·mol⁻¹    T·S(FR)/kcal·mol⁻¹   T·S(vib)
   ------------------------------------------------------------------------
       1      6.60    -2.63495 (  0.03%)    -1.65608 ( 99.97%)    -1.65637
       2     18.68    -2.01850 (  1.91%)    -1.34809 ( 98.09%)    -1.36089
       3     32.29    -1.69448 ( 14.82%)    -1.18596 ( 85.18%)    -1.26133
       4     61.23    -1.31702 ( 69.21%)    -0.99650 ( 30.79%)    -1.21834
       5     79.54    -1.16343 ( 86.49%)    -0.91898 ( 13.51%)    -1.13041
       6     96.01    -1.05359 ( 93.15%)    -0.86324 (  6.85%)    -1.04055
       7    128.86    -0.88339 ( 97.78%)    -0.77606 (  2.22%)    -0.88101
       8    135.01    -0.85670 ( 98.15%)    -0.76226 (  1.85%)    -0.85496
       9    235.31    -0.54803 ( 99.80%)    -0.59770 (  0.20%)    -0.54813
      10    293.71    -0.43306 ( 99.92%)    -0.53202 (  0.08%)    -0.43315
   ------------------------------------------------------------------------

   temp. (K)  partition function   enthalpy   heat capacity  entropy
                                   cal/mol     cal/K/mol   cal/K/mol   J/K/mol
 298.15  VIB  0.489E+07             7611.261     48.206     48.697
         ROT  0.387E+07              888.752      2.981     33.127
         INT  0.189E+14             8500.013     51.187     81.824
         TR   0.358E+28             1481.254      4.968     42.299
         TOT                        9981.2672    56.1552   124.1233   519.3320

       T/K    H(0)-H(T)+PV         H(T)/Eh          T*S/Eh         G(T)/Eh
   ------------------------------------------------------------------------
    298.15    0.159062E-01    0.257511E+00    0.589750E-01    0.198536E+00
   ------------------------------------------------------------------------

         :::::::::::::::::::::::::::::::::::::::::::::::::::::
         ::                  THERMODYNAMIC                  ::
         :::::::::::::::::::::::::::::::::::::::::::::::::::::
         :: total free energy         -48.875274287911 Eh   ::
         ::.................................................::
         :: total energy              -49.073810230997 Eh   ::
         :: zero point energy           0.241604777918 Eh   ::
         :: G(RRHO) w/o ZPVE           -0.043068834832 Eh   ::
         :: G(RRHO) contrib.            0.198535943086 Eh   ::
         :::::::::::::::::::::::::::::::::::::::::::::::::::::

optimized geometry written to: xtbopt.sdf


           -------------------------------------------------
          | TOTAL ENERGY              -49.073810230997 Eh   |
          | TOTAL ENTHALPY            -48.816299291290 Eh   |
          | TOTAL FREE ENERGY         -48.875274287911 Eh   |
          | GRADIENT NORM               0.000690779907 Eh/α |
          | HOMO-LUMO GAP               3.029187296182 eV   |
           -------------------------------------------------
########################################################################
[WARNING] Runtime exception occurred
-2- restart_readRestart: Dimension missmatch in restart file.
-1- restart_readRestart: Number of electron missmatch in restart file.
########################################################################

------------------------------------------------------------------------
 * finished run on 2023/10/30 at 02:07:40.775     
------------------------------------------------------------------------
 total:
 * wall-time:     0 d,  0 h,  0 min,  6.816 sec
 *  cpu-time:     0 d,  0 h,  0 min, 35.078 sec
 * ratio c/w:     5.146 speedup
 SCF:
 * wall-time:     0 d,  0 h,  0 min,  0.474 sec
 *  cpu-time:     0 d,  0 h,  0 min,  2.303 sec
 * ratio c/w:     4.862 speedup
 ANC optimizer:
 * wall-time:     0 d,  0 h,  0 min,  1.913 sec
 *  cpu-time:     0 d,  0 h,  0 min, 12.320 sec
 * ratio c/w:     6.439 speedup
 analytical hessian:
 * wall-time:     0 d,  0 h,  0 min,  3.226 sec
 *  cpu-time:     0 d,  0 h,  0 min, 19.208 sec
 * ratio c/w:     5.955 speedup

