      -----------------------------------------------------------      
     |                   =====================                   |     
     |                           x T B                           |     
     |                   =====================                   |     
     |                         S. Grimme                         |     
     |          Mulliken Center for Theoretical Chemistry        |     
     |                    University of Bonn                     |     
      -----------------------------------------------------------      

   * xtb version 6.6.1 (8d0f1dd) compiled by 'conda@1efc2f54142f' on 2023-08-01

   xtb is free software: you can redistribute it and/or modify it under
   the terms of the GNU Lesser General Public License as published by
   the Free Software Foundation, either version 3 of the License, or
   (at your option) any later version.
   
   xtb is distributed in the hope that it will be useful,
   but WITHOUT ANY WARRANTY; without even the implied warranty of
   MERCHANTABILITY or FITNESS FOR A PARTICULAR PURPOSE.  See the
   GNU Lesser General Public License for more details.
   
   Cite this work as:
   * C. Bannwarth, E. Caldeweyher, S. Ehlert, A. Hansen, P. Pracht,
     J. Seibert, S. Spicher, S. Grimme, WIREs Comput. Mol. Sci., 2020, 11,
     e01493. DOI: 10.1002/wcms.1493
   
   for GFN2-xTB:
   * C. Bannwarth, S. Ehlert and S. Grimme., J. Chem. Theory Comput., 2019,
     15, 1652-1671. DOI: 10.1021/acs.jctc.8b01176
   for GFN1-xTB:
   * S. Grimme, C. Bannwarth, P. Shushkov, J. Chem. Theory Comput., 2017,
     13, 1989-2009. DOI: 10.1021/acs.jctc.7b00118
   for GFN0-xTB:
   * P. Pracht, E. Caldeweyher, S. Ehlert, S. Grimme, ChemRxiv, 2019, preprint.
     DOI: 10.26434/chemrxiv.8326202.v1
   for GFN-FF:
   * S. Spicher and S. Grimme, Angew. Chem. Int. Ed., 2020, 59, 15665-15673.
     DOI: 10.1002/anie.202004239
   
   for ALPB and GBSA implicit solvation:
   * S. Ehlert, M. Stahn, S. Spicher, S. Grimme, J. Chem. Theory Comput.,
     2021, 17, 4250-4261. DOI: 10.1021/acs.jctc.1c00471
   
   for DFT-D4:
   * E. Caldeweyher, C. Bannwarth and S. Grimme, J. Chem. Phys., 2017,
     147, 034112. DOI: 10.1063/1.4993215
   * E. Caldeweyher, S. Ehlert, A. Hansen, H. Neugebauer, S. Spicher,
     C. Bannwarth and S. Grimme, J. Chem. Phys., 2019, 150, 154122.
     DOI: 10.1063/1.5090222
   * E. Caldeweyher, J.-M. Mewes, S. Ehlert and S. Grimme, Phys. Chem. Chem. Phys.
     2020, 22, 8499-8512. DOI: 10.1039/D0CP00502A
   
   for sTDA-xTB:
   * S. Grimme and C. Bannwarth, J. Chem. Phys., 2016, 145, 054103.
     DOI: 10.1063/1.4959605
   
   in the mass-spec context:
   * V. Asgeirsson, C. Bauer and S. Grimme, Chem. Sci., 2017, 8, 4879.
     DOI: 10.1039/c7sc00601b
   * J. Koopman and S. Grimme, ACS Omega 2019, 4, 12, 15120-15133.
     DOI: 10.1021/acsomega.9b02011
   
   for metadynamics refer to:
   * S. Grimme, J. Chem. Theory Comput., 2019, 155, 2847-2862
     DOI: 10.1021/acs.jctc.9b00143
   
   for SPH calculations refer to:
   * S. Spicher and S. Grimme, J. Chem. Theory Comput., 2021, 17, 1701-1714
     DOI: 10.1021/acs.jctc.0c01306
   
   with help from (in alphabetical order)
   P. Atkinson, C. Bannwarth, F. Bohle, G. Brandenburg, E. Caldeweyher
   M. Checinski, S. Dohm, S. Ehlert, S. Ehrlich, I. Gerasimov, C. Hölzer
   A. Katbashev, J. Koopman, C. Lavigne, S. Lehtola, F. März, M. Müller,
   F. Musil, H. Neugebauer, J. Pisarek, C. Plett, P. Pracht, F. Pultar,
   J. Seibert, P. Shushkov, S. Spicher, M. Stahn, M. Steiner, T. Strunk,
   J. Stückrath, T. Rose, and J. Unsleber
   
 * started run on 2023/11/11 at 14:06:27.445     

           -------------------------------------------------
          |                Calculation Setup                |
           -------------------------------------------------

          program call               : xtb mol.sdf --opt crude --alpb water
          coordinate file            : mol.sdf
          omp threads                :                     8

   ID    Z sym.   atoms
    1    6 C      1-7
    2    1 H      8-14

           -------------------------------------------------
          |                 G F N 2 - x T B                 |
           -------------------------------------------------

        Reference                      10.1021/acs.jctc.8b01176
      * Hamiltonian:
        H0-scaling (s, p, d)           1.850000    2.230000    2.230000
        zeta-weighting                 0.500000
      * Dispersion:
        s8                             2.700000
        a1                             0.520000
        a2                             5.000000
        s9                             5.000000
      * Repulsion:
        kExp                           1.500000    1.000000
        rExp                           1.000000
      * Coulomb:
        alpha                          2.000000
        third order                    shell-resolved
        anisotropic                    true
        a3                             3.000000
        a5                             4.000000
        cn-shift                       1.200000
        cn-exp                         4.000000
        max-rad                        5.000000

      * Solvation model:               ALPB
        Solvent                        water
        Parameter file                 internal GFN2-xTB/ALPB
        Dielectric constant                8.0200E+01
        Reference state                gsolv [1 M gas/solution]
        Free energy shift                  1.0808E-03 Eh       6.7819E-01 kcal/mol
        Temperature                        2.9815E+02 K
        Density                            1.0000E+00 kg/L
        Solvent mass                       1.8000E+01 g/mol
        Interaction kernel             P16
        Born radius scaling (c1)           1.4744E+00
        Born radii integrator          GBOBC
        Born offset                        0.0000E+00 a0       0.0000E+00 AA
        H-bond correction              true
        Ion screening                  false
        Surface tension                    1.0000E-05 Eh       1.5569E+01 dyn/cm
        Grid points                               230 per atom

          ...................................................
          :                      SETUP                      :
          :.................................................:
          :  # basis functions                  35          :
          :  # atomic orbitals                  35          :
          :  # shells                           21          :
          :  # electrons                        34          :
          :  max. iterations                   250          :
          :  Hamiltonian                  GFN2-xTB          :
          :  restarted?                      false          :
          :  GBSA solvation                   true          :
          :  PC potential                    false          :
          :  electronic temp.          300.0000000     K    :
          :  accuracy                    1.0000000          :
          :  -> integral cutoff          0.2500000E+02      :
          :  -> integral neglect         0.1000000E-07      :
          :  -> SCF convergence          0.1000000E-05 Eh   :
          :  -> wf. convergence          0.1000000E-03 e    :
          :  Broyden damping             0.4000000          :
          ...................................................

 iter      E             dE          RMSdq      gap      omega  full diag
   1    -18.4882501 -0.184883E+02  0.639E+00    3.71       0.0  T
   2    -18.4921996 -0.394953E-02  0.385E+00    3.51       1.0  T
   3    -18.4926197 -0.420037E-03  0.240E-01    3.30       1.0  T
   4    -18.4928387 -0.219070E-03  0.427E-02    3.34       1.0  T
   5    -18.4928391 -0.394251E-06  0.158E-02    3.34       1.7  T
   6    -18.4928392 -0.937283E-07  0.117E-03    3.34      22.8  T
   7    -18.4928392 -0.151812E-07  0.489E-04    3.34      54.6  T
   8    -18.4928392 -0.171998E-09  0.406E-05    3.34     657.9  T

   *** convergence criteria satisfied after 8 iterations ***

         #    Occupation            Energy/Eh            Energy/eV
      -------------------------------------------------------------
         1        2.0000           -0.6997160             -19.0402
       ...           ...                  ...                  ...
        11        2.0000           -0.5365775             -14.6010
        12        2.0000           -0.4915669             -13.3762
        13        2.0000           -0.4915601             -13.3760
        14        2.0000           -0.4858598             -13.2209
        15        2.0000           -0.4858525             -13.2207
        16        2.0000           -0.4679550             -12.7337
        17        2.0000           -0.4679496             -12.7336 (HOMO)
        18                         -0.3451194              -9.3912 (LUMO)
        19                         -0.3451068              -9.3908
        20                         -0.1790207              -4.8714
        21                         -0.1790044              -4.8710
        22                          0.0654812               1.7818
       ...                                ...                  ...
        35                          0.6512785              17.7222
      -------------------------------------------------------------
                  HL-Gap            0.1228302 Eh            3.3424 eV
             Fermi-level           -0.4065345 Eh          -11.0624 eV

 SCC (total)                   0 d,  0 h,  0 min,  0.080 sec
 SCC setup                      ...        0 min,  0.001 sec (  1.430%)
 Dispersion                     ...        0 min,  0.006 sec (  7.840%)
 classical contributions        ...        0 min,  0.000 sec (  0.013%)
 integral evaluation            ...        0 min,  0.006 sec (  7.516%)
 iterations                     ...        0 min,  0.064 sec ( 80.420%)
 molecular gradient             ...        0 min,  0.002 sec (  2.391%)
 printout                       ...        0 min,  0.000 sec (  0.348%)

         :::::::::::::::::::::::::::::::::::::::::::::::::::::
         ::                     SUMMARY                     ::
         :::::::::::::::::::::::::::::::::::::::::::::::::::::
         :: total energy             -18.134514048292 Eh    ::
         :: total w/o Gsasa/hb       -18.130068557975 Eh    ::
         :: gradient norm              0.003379014520 Eh/a0 ::
         :: HOMO-LUMO gap              3.342379259561 eV    ::
         ::.................................................::
         :: SCC energy               -18.492839228413 Eh    ::
         :: -> isotropic ES            0.093446783927 Eh    ::
         :: -> anisotropic ES         -0.021190042161 Eh    ::
         :: -> anisotropic XC          0.019857710086 Eh    ::
         :: -> dispersion             -0.008963799897 Eh    ::
         :: -> Gsolv                  -0.081246415385 Eh    ::
         ::    -> Gelec               -0.076800925068 Eh    ::
         ::    -> Gsasa               -0.001607119586 Eh    ::
         ::    -> Ghb                 -0.003919130429 Eh    ::
         ::    -> Gshift               0.001080759698 Eh    ::
         :: repulsion energy           0.358306307091 Eh    ::
         :: add. restraining           0.000000000000 Eh    ::
         :: total charge               1.000000000000 e     ::
         :::::::::::::::::::::::::::::::::::::::::::::::::::::

      ----------------------------------------------------------- 
     |                   =====================                   |
     |                        A N C O P T                        |
     |                   =====================                   |
     |               Approximate Normal Coordinate               |
     |                Rational Function Optimizer                |
      ----------------------------------------------------------- 

          ...................................................
          :                      SETUP                      :
          :.................................................:
          :   optimization level             crude          :
          :   max. optcycles                   200          :
          :   ANC micro-cycles                  20          :
          :   degrees of freedom                36          :
          :.................................................:
          :   RF solver                   davidson          :
          :   write xtbopt.log                true          :
          :   linear?                        false          :
          :   energy convergence         0.5000000E-03 Eh   :
          :   grad. convergence          0.1000000E-01 Eh/α :
          :   maxmium RF displ.          1.0000000          :
          :   Hlow (freq-cutoff)         0.1000000E-01      :
          :   Hmax (freq-cutoff)         5.0000000          :
          :   S6 in model hess.         20.0000000          :
          ...................................................

generating ANC from model Hessian ...
Using Lindh-Hessian (1995)
 Shifting diagonal of input Hessian by    0.0000000000000000     
 Lowest  eigenvalues of input Hessian
    0.000000    0.000000    0.000000    0.000000    0.000000    0.000000
    0.011390    0.011391    0.022463    0.024286    0.024288    0.053649
    0.053661    0.084262    0.084265    0.094432    0.094444    0.094776
 Highest eigenvalues
    1.380390    1.380432    1.876981    1.877069    2.041982    2.042094


........................................................................
.............................. CYCLE    1 ..............................
........................................................................

 iter      E             dE          RMSdq      gap      omega  full diag
   1    -18.4928392 -0.184928E+02  0.954E-06    3.34       0.0  T
   2    -18.4928392 -0.696332E-12  0.535E-06    3.34    4993.8  T
   3    -18.4928392 -0.323297E-12  0.169E-06    3.34   15856.8  T
     SCC iter.                  ...        0 min,  0.017 sec
     gradient                   ...        0 min,  0.029 sec
 * total energy  :   -18.1345140 Eh     change       -0.1809752E-10 Eh
   gradient norm :     0.0033789 Eh/α   predicted     0.0000000E+00 (-100.00%)
   displ. norm   :     0.0031070 α      lambda       -0.9921654E-05
   maximum displ.:     0.0029018 α      in ANC's #28, #6, #18, ...

   *** GEOMETRY OPTIMIZATION CONVERGED AFTER 1 ITERATIONS ***

------------------------------------------------------------------------
 total energy gain   :        -0.0000000 Eh       -0.0000 kcal/mol
 total RMSD          :         0.0000000 a0        0.0000 Å
 total power (kW/mol):        -0.0000000 (step)   -0.0000 (real)
------------------------------------------------------------------------

 ANCopt (total)                0 d,  0 h,  0 min,  0.068 sec
 optimizer setup                ...        0 min,  0.000 sec (  0.278%)
 model hessian                  ...        0 min,  0.003 sec (  3.779%)
 ANC generation                 ...        0 min,  0.000 sec (  0.480%)
 coordinate transformation      ...        0 min,  0.000 sec (  0.017%)
 single point calculation       ...        0 min,  0.063 sec ( 92.954%)
 optimization log               ...        0 min,  0.001 sec (  1.829%)
 hessian update                 ...        0 min,  0.000 sec (  0.004%)
 rational function              ...        0 min,  0.000 sec (  0.348%)

================
 final structure:
================
 xtb: 6.6.1 (8d0f1dd)
          11112314063D

 14 14  0     0  0            999 V2000
   -0.0735    1.5973   -0.0924 C   0  0  0  0  0  0  0  0  0  0  0  0
   -1.2957    0.9357   -0.1050 C   0  0  0  0  0  0  0  0  0  0  0  0
   -1.5423   -0.4306   -0.0385 C   0  0  0  0  0  0  0  0  0  0  0  0
   -0.6274   -1.4726    0.0569 C   0  0  0  0  0  0  0  0  0  0  0  0
    0.7599   -1.4057    0.1095 C   0  0  0  0  0  0  0  0  0  0  0  0
    1.5750   -0.2803    0.0796 C   0  0  0  0  0  0  0  0  0  0  0  0
    1.2041    1.0562   -0.0102 C   0  0  0  0  0  0  0  0  0  0  0  0
   -0.1232    2.6782   -0.1548 H   0  0  0  0  0  0  0  0  0  0  0  0
   -2.1725    1.5688   -0.1760 H   0  0  0  0  0  0  0  0  0  0  0  0
   -2.5858   -0.7219   -0.0646 H   0  0  0  0  0  0  0  0  0  0  0  0
   -1.0520   -2.4690    0.0954 H   0  0  0  0  0  0  0  0  0  0  0  0
    1.2741   -2.3569    0.1836 H   0  0  0  0  0  0  0  0  0  0  0  0
    2.6407   -0.4700    0.1335 H   0  0  0  0  0  0  0  0  0  0  0  0
    2.0188    1.7709   -0.0171 H   0  0  0  0  0  0  0  0  0  0  0  0
  1  2  2  0  0  0  0
  1  8  1  0  0  0  0
  2  3  1  0  0  0  0
  2  9  1  0  0  0  0
  3  4  2  0  0  0  0
  3 10  1  0  0  0  0
  4  5  1  0  0  0  0
  4 11  1  0  0  0  0
  5  6  2  0  0  0  0
  5 12  1  0  0  0  0
  6  7  1  0  0  0  0
  6 13  1  0  0  0  0
  7  1  1  0  0  0  0
  7 14  1  0  0  0  0
M  CHG  1   5   1
M  END
$$$$

 Bond Distances (Angstroems)
 ---------------------------
C1-C2=1.3898         C1-C7=1.3899         C1-H8=1.0838         C2-C1=1.3898         C2-C3=1.3900         C2-H9=1.0838         
C3-C2=1.3900         C3-C4=1.3899         C3-H10=1.0837        C4-C3=1.3899         C4-C5=1.3899         C4-H11=1.0838        
C5-C4=1.3899         C5-C6=1.3899         C5-H12=1.0838        C6-C5=1.3899         C6-C7=1.3899         C6-H13=1.0838        
C7-C1=1.3899         C7-C6=1.3899         C7-H14=1.0838        H8-C1=1.0838         H9-C2=1.0838         H10-C3=1.0837        
H11-C4=1.0838        H12-C5=1.0838        H13-C6=1.0838        H14-C7=1.0838        
 C  H  Rav=1.0838 sigma=0.0000  Rmin=1.0837  Rmax=1.0838     7
 C  C  Rav=1.3899 sigma=0.0000  Rmin=1.3898  Rmax=1.3900     7

 selected bond angles (degree)
 --------------------
C7-C1-C2=128.58                H8-C1-C2=115.71                H8-C1-C7=115.71                C3-C2-C1=128.57                
H9-C2-C1=115.72                H9-C2-C3=115.71                C4-C3-C2=128.57                H10-C3-C2=115.72               
H10-C3-C4=115.72               C5-C4-C3=128.57                H11-C4-C3=115.71               H11-C4-C5=115.72               
C6-C5-C4=128.57                H12-C5-C4=115.71               H12-C5-C6=115.71               C7-C6-C5=128.57                
H13-C6-C5=115.71               H13-C6-C7=115.72               C6-C7-C1=128.57                H14-C7-C1=115.71               
H14-C7-C6=115.72               

 selected dihedral angles (degree)
 ---------------------------------
C3-C2-C1-C7=  0.00            C3-C2-C1-H8=180.01            H9-C2-C1-C7=180.00            H9-C2-C1-H8=  0.00            
C4-C3-C2-C1=  0.00            C4-C3-C2-H9=180.00            H10-C3-C2-C1=180.00           H10-C3-C2-H9=  0.00           
C5-C4-C3-C2=  0.00            C5-C4-C3-H10=180.00           H11-C4-C3-C2=180.00           H11-C4-C3-H10=  0.00          
C6-C5-C4-C3=  0.00            C6-C5-C4-H11=180.00           H12-C5-C4-C3=180.00           H12-C5-C4-H11=  0.00          
C7-C6-C5-C4=  0.00            C7-C6-C5-H12=180.00           H13-C6-C5-C4=180.00           H13-C6-C5-H12=  0.00          
C6-C7-C1-C2=  0.00            C6-C7-C1-H8=180.00            H14-C7-C1-C2=180.00           H14-C7-C1-H8=  0.00           
C1-C7-C6-C5=  0.00            C1-C7-C6-H13=180.00           H14-C7-C6-C5=180.00           H14-C7-C6-H13=  0.00          
           -------------------------------------------------
          |                Final Singlepoint                |
           -------------------------------------------------

          ...................................................
          :                      SETUP                      :
          :.................................................:
          :  # basis functions                  35          :
          :  # atomic orbitals                  35          :
          :  # shells                           21          :
          :  # electrons                        34          :
          :  max. iterations                   250          :
          :  Hamiltonian                  GFN2-xTB          :
          :  restarted?                      false          :
          :  GBSA solvation                   true          :
          :  PC potential                    false          :
          :  electronic temp.          300.0000000     K    :
          :  accuracy                    1.0000000          :
          :  -> integral cutoff          0.2500000E+02      :
          :  -> integral neglect         0.1000000E-07      :
          :  -> SCF convergence          0.1000000E-05 Eh   :
          :  -> wf. convergence          0.1000000E-03 e    :
          :  Broyden damping             0.4000000          :
          ...................................................

 iter      E             dE          RMSdq      gap      omega  full diag
   1    -18.4928392 -0.184928E+02  0.454E-07    3.34       0.0  T
   2    -18.4928392 -0.142109E-13  0.281E-07    3.34   95018.9  T
   3    -18.4928392  0.142109E-13  0.182E-07    3.34  100000.0  T

   *** convergence criteria satisfied after 3 iterations ***

         #    Occupation            Energy/Eh            Energy/eV
      -------------------------------------------------------------
         1        2.0000           -0.6997156             -19.0402
       ...           ...                  ...                  ...
        11        2.0000           -0.5365772             -14.6010
        12        2.0000           -0.4915667             -13.3762
        13        2.0000           -0.4915599             -13.3760
        14        2.0000           -0.4858595             -13.2209
        15        2.0000           -0.4858523             -13.2207
        16        2.0000           -0.4679547             -12.7337
        17        2.0000           -0.4679493             -12.7335 (HOMO)
        18                         -0.3451191              -9.3912 (LUMO)
        19                         -0.3451065              -9.3908
        20                         -0.1790204              -4.8714
        21                         -0.1790041              -4.8709
        22                          0.0654813               1.7818
       ...                                ...                  ...
        35                          0.6512789              17.7222
      -------------------------------------------------------------
                  HL-Gap            0.1228302 Eh            3.3424 eV
             Fermi-level           -0.4065342 Eh          -11.0624 eV

 SCC (total)                   0 d,  0 h,  0 min,  0.013 sec
 SCC setup                      ...        0 min,  0.005 sec ( 38.222%)
 Dispersion                     ...        0 min,  0.001 sec (  8.152%)
 classical contributions        ...        0 min,  0.001 sec (  8.948%)
 integral evaluation            ...        0 min,  0.001 sec (  8.782%)
 iterations                     ...        0 min,  0.003 sec ( 22.446%)
 molecular gradient             ...        0 min,  0.002 sec ( 12.336%)
 printout                       ...        0 min,  0.000 sec (  0.795%)

         :::::::::::::::::::::::::::::::::::::::::::::::::::::
         ::                     SUMMARY                     ::
         :::::::::::::::::::::::::::::::::::::::::::::::::::::
         :: total energy             -18.134514048310 Eh    ::
         :: total w/o Gsasa/hb       -18.130068552741 Eh    ::
         :: gradient norm              0.003378921226 Eh/a0 ::
         :: HOMO-LUMO gap              3.342380573124 eV    ::
         ::.................................................::
         :: SCC energy               -18.492839228431 Eh    ::
         :: -> isotropic ES            0.093446850593 Eh    ::
         :: -> anisotropic ES         -0.021190047108 Eh    ::
         :: -> anisotropic XC          0.019857700956 Eh    ::
         :: -> dispersion             -0.008963801015 Eh    ::
         :: -> Gsolv                  -0.081246418793 Eh    ::
         ::    -> Gelec               -0.076800923224 Eh    ::
         ::    -> Gsasa               -0.001607119586 Eh    ::
         ::    -> Ghb                 -0.003919135682 Eh    ::
         ::    -> Gshift               0.001080759698 Eh    ::
         :: repulsion energy           0.358306307091 Eh    ::
         :: add. restraining           0.000000000000 Eh    ::
         :: total charge               1.000000000000 e     ::
         :::::::::::::::::::::::::::::::::::::::::::::::::::::

           -------------------------------------------------
          |                Property Printout                |
           -------------------------------------------------

    * Orbital Energies and Occupations

         #    Occupation            Energy/Eh            Energy/eV
      -------------------------------------------------------------
         1        2.0000           -0.6997156             -19.0402
       ...           ...                  ...                  ...
         5        2.0000           -0.6452161             -17.5572
         6        2.0000           -0.5853834             -15.9291
         7        2.0000           -0.5853807             -15.9290
         8        2.0000           -0.5805467             -15.7975
         9        2.0000           -0.5413777             -14.7316
        10        2.0000           -0.5413751             -14.7316
        11        2.0000           -0.5365772             -14.6010
        12        2.0000           -0.4915667             -13.3762
        13        2.0000           -0.4915599             -13.3760
        14        2.0000           -0.4858595             -13.2209
        15        2.0000           -0.4858523             -13.2207
        16        2.0000           -0.4679547             -12.7337
        17        2.0000           -0.4679493             -12.7335 (HOMO)
        18                         -0.3451191              -9.3912 (LUMO)
        19                         -0.3451065              -9.3908
        20                         -0.1790204              -4.8714
        21                         -0.1790041              -4.8709
        22                          0.0654813               1.7818
        23                          0.1012703               2.7557
        24                          0.1013580               2.7581
        25                          0.1042082               2.8357
        26                          0.1042254               2.8361
        27                          0.2091619               5.6916
        28                          0.2092061               5.6928
       ...                                ...                  ...
        35                          0.6512789              17.7222
      -------------------------------------------------------------
                  HL-Gap            0.1228302 Eh            3.3424 eV
             Fermi-level           -0.4065342 Eh          -11.0624 eV

     #   Z          covCN         q      C6AA      α(0)
     1   6 C        2.893     0.019    27.582     8.611
     2   6 C        2.893     0.019    27.582     8.611
     3   6 C        2.893     0.019    27.583     8.611
     4   6 C        2.893     0.019    27.582     8.611
     5   6 C        2.893     0.019    27.582     8.611
     6   6 C        2.893     0.019    27.582     8.611
     7   6 C        2.893     0.019    27.582     8.611
     8   1 H        0.925     0.124     1.583     1.967
     9   1 H        0.925     0.124     1.583     1.967
    10   1 H        0.925     0.124     1.582     1.967
    11   1 H        0.925     0.124     1.583     1.968
    12   1 H        0.925     0.124     1.583     1.967
    13   1 H        0.925     0.124     1.583     1.968
    14   1 H        0.925     0.124     1.583     1.968

 Mol. C6AA /au·bohr⁶  :       2075.772870
 Mol. C8AA /au·bohr⁸  :      52117.784955
 Mol. α(0) /au        :         74.047152


Wiberg/Mayer (AO) data.
largest (>0.10) Wiberg bond orders for each atom

 ---------------------------------------------------------------------------
     #   Z sym  total        # sym  WBO       # sym  WBO       # sym  WBO
 ---------------------------------------------------------------------------
     1   6 C    3.961 --     2 C    1.410     7 C    1.410     8 H    0.955
     2   6 C    3.961 --     1 C    1.410     3 C    1.410     9 H    0.955
     3   6 C    3.961 --     4 C    1.410     2 C    1.410    10 H    0.955
     4   6 C    3.961 --     3 C    1.410     5 C    1.410    11 H    0.955
     5   6 C    3.961 --     6 C    1.410     4 C    1.410    12 H    0.955
     6   6 C    3.961 --     5 C    1.410     7 C    1.410    13 H    0.955
     7   6 C    3.961 --     6 C    1.410     1 C    1.410    14 H    0.955
     8   1 H    0.985 --     1 C    0.955
     9   1 H    0.985 --     2 C    0.955
    10   1 H    0.985 --     3 C    0.955
    11   1 H    0.985 --     4 C    0.955
    12   1 H    0.985 --     5 C    0.955
    13   1 H    0.985 --     6 C    0.955
    14   1 H    0.985 --     7 C    0.955
 ---------------------------------------------------------------------------

Topologies differ in bond orders
Writing corrected topology to xtbtopo.sdf

molecular dipole:
                 x           y           z       tot (Debye)
 q only:       -0.000       0.000      -0.000
   full:       -0.000       0.000      -0.000       0.001
molecular quadrupole (traceless):
                xx          xy          yy          xz          yz          zz
 q only:        5.857       0.039       5.829       0.714      -0.983     -11.686
  q+dip:        7.906       0.054       7.869       0.963      -1.327     -15.775
   full:        5.718       0.039       5.691       0.697      -0.960     -11.409

           -------------------------------------------------
          |                Geometry Summary                 |
           -------------------------------------------------

      molecular mass/u    :       91.1307366
   center of mass at/Å    :        0.0000143       0.0000011      -0.0000132
  moments of inertia/u·Å² :        0.1332860E+03   0.1332892E+03   0.2665752E+03
rotational constants/cm⁻¹ :        0.1264771E+00   0.1264742E+00   0.6323781E-01

 * 14 selected distances

     #   Z          #   Z                                           value/Å
     1   6 C        2   6 C                                       1.3898369
     2   6 C        3   6 C                                       1.3899676 (max)
     3   6 C        4   6 C                                       1.3899308
     4   6 C        5   6 C                                       1.3899079
     5   6 C        6   6 C                                       1.3898948
     1   6 C        7   6 C                                       1.3898950
     6   6 C        7   6 C                                       1.3899149
     1   6 C        8   1 H                                       1.0838399
     2   6 C        9   1 H                                       1.0838058
     3   6 C       10   1 H                                       1.0837109 (min)
     4   6 C       11   1 H                                       1.0837807
     5   6 C       12   1 H                                       1.0838238
     6   6 C       13   1 H                                       1.0837933
     7   6 C       14   1 H                                       1.0837804

 * 2 distinct bonds (by element types)

   Z      Z             #   av. dist./Å        max./Å        min./Å
   1 H    6 C           7     1.0837907     1.0838399     1.0837109
   6 C    6 C           7     1.3899068     1.3899676     1.3898369


optimized geometry written to: xtbopt.sdf


           -------------------------------------------------
          | TOTAL ENERGY              -18.134514048310 Eh   |
          | GRADIENT NORM               0.003378921226 Eh/α |
          | HOMO-LUMO GAP               3.342380573124 eV   |
           -------------------------------------------------
########################################################################
[WARNING] Runtime exception occurred
-2- restart_readRestart: Dimension missmatch in restart file.
-1- restart_readRestart: Number of electron missmatch in restart file.
########################################################################

------------------------------------------------------------------------
 * finished run on 2023/11/11 at 14:06:27.628     
------------------------------------------------------------------------
 total:
 * wall-time:     0 d,  0 h,  0 min,  0.182 sec
 *  cpu-time:     0 d,  0 h,  0 min,  1.219 sec
 * ratio c/w:     6.704 speedup
 SCF:
 * wall-time:     0 d,  0 h,  0 min,  0.080 sec
 *  cpu-time:     0 d,  0 h,  0 min,  0.520 sec
 * ratio c/w:     6.478 speedup
 ANC optimizer:
 * wall-time:     0 d,  0 h,  0 min,  0.083 sec
 *  cpu-time:     0 d,  0 h,  0 min,  0.628 sec
 * ratio c/w:     7.533 speedup

